<?xml version="1.0" encoding="ISO-8859-1"?>
<modeling>
 <generator>
  <i name="program" type="string">vasp </i>
  <i name="version" type="string">5.4.4.18Apr17-6-g9f103f2a35  </i>
  <i name="subversion" type="string">(build Apr 24 2017 21:27:10) complex            parallel </i>
  <i name="platform" type="string">LinuxIFC </i>
  <i name="date" type="string">2019 04 11 </i>
  <i name="time" type="string">15:15:18 </i>
 </generator>
 <incar>
  <i type="string" name="SYSTEM"> Bi2Se3</i>
  <i type="string" name="PREC">normal</i>
  <i type="string" name="ALGO"> Normal</i>
  <i type="int" name="ISPIN">     2</i>
  <i type="int" name="ICHARG">    11</i>
  <i name="EDIFF">      0.00010000</i>
  <i type="int" name="ISYM">     0</i>
  <i name="ENCUT">    200.00000000</i>
  <i type="logical" name="LREAL"> F  </i>
  <i type="logical" name="LPLANE"> T  </i>
  <i type="int" name="ISMEAR">     0</i>
  <i name="SIGMA">      0.05000000</i>
  <i type="int" name="LORBIT">    12</i>
  <v type="int" name="KPOINT_BSE">    -1     0     0     0</v>
  <i type="string" name="GGA"> PE</i>
 </incar>
 <structure name="primitive_cell" >
  <crystal>
   <varray name="basis" >
    <v>       1.76142189       1.76142189       0.00000000 </v>
    <v>       0.00000000       1.76142189       1.76142189 </v>
    <v>       1.76142189       0.00000000       1.76142189 </v>
   </varray>
   <i name="volume">     10.93000000 </i>
   <varray name="rec_basis" >
    <v>       0.28386158       0.28386158      -0.28386158 </v>
    <v>      -0.28386158       0.28386158       0.28386158 </v>
    <v>       0.28386158      -0.28386158       0.28386158 </v>
   </varray>
  </crystal>
  <varray name="positions" >
   <v>       0.00000000       0.00000000       0.00000000 </v>
  </varray>
 </structure>
 <varray name="primitive_index" >
  <v type="int" >        1 </v>
 </varray>
 <kpoints>
  <generation param="listgenerated">
   <i name="divisions" type="int">      40 </i>
   <v>       0.00000000       0.00000000       0.00000000 </v>
   <v>       0.25000000       0.50000000       0.25000000 </v>
   <v>       0.37500000       0.62500000       0.50000000 </v>
   <v>       0.25000000       0.50000000       0.25000000 </v>
  </generation>
  <varray name="kpointlist" >
   <v>       0.00000000       0.00000000       0.00000000 </v>
   <v>       0.00641026       0.01282051       0.00641026 </v>
   <v>       0.01282051       0.02564103       0.01282051 </v>
   <v>       0.01923077       0.03846154       0.01923077 </v>
   <v>       0.02564103       0.05128205       0.02564103 </v>
   <v>       0.03205128       0.06410256       0.03205128 </v>
   <v>       0.03846154       0.07692308       0.03846154 </v>
   <v>       0.04487179       0.08974359       0.04487179 </v>
   <v>       0.05128205       0.10256410       0.05128205 </v>
   <v>       0.05769231       0.11538462       0.05769231 </v>
   <v>       0.06410256       0.12820513       0.06410256 </v>
   <v>       0.07051282       0.14102564       0.07051282 </v>
   <v>       0.07692308       0.15384615       0.07692308 </v>
   <v>       0.08333333       0.16666667       0.08333333 </v>
   <v>       0.08974359       0.17948718       0.08974359 </v>
   <v>       0.09615385       0.19230769       0.09615385 </v>
   <v>       0.10256410       0.20512821       0.10256410 </v>
   <v>       0.10897436       0.21794872       0.10897436 </v>
   <v>       0.11538462       0.23076923       0.11538462 </v>
   <v>       0.12179487       0.24358974       0.12179487 </v>
   <v>       0.12820513       0.25641026       0.12820513 </v>
   <v>       0.13461538       0.26923077       0.13461538 </v>
   <v>       0.14102564       0.28205128       0.14102564 </v>
   <v>       0.14743590       0.29487179       0.14743590 </v>
   <v>       0.15384615       0.30769231       0.15384615 </v>
   <v>       0.16025641       0.32051282       0.16025641 </v>
   <v>       0.16666667       0.33333333       0.16666667 </v>
   <v>       0.17307692       0.34615385       0.17307692 </v>
   <v>       0.17948718       0.35897436       0.17948718 </v>
   <v>       0.18589744       0.37179487       0.18589744 </v>
   <v>       0.19230769       0.38461538       0.19230769 </v>
   <v>       0.19871795       0.39743590       0.19871795 </v>
   <v>       0.20512821       0.41025641       0.20512821 </v>
   <v>       0.21153846       0.42307692       0.21153846 </v>
   <v>       0.21794872       0.43589744       0.21794872 </v>
   <v>       0.22435897       0.44871795       0.22435897 </v>
   <v>       0.23076923       0.46153846       0.23076923 </v>
   <v>       0.23717949       0.47435897       0.23717949 </v>
   <v>       0.24358974       0.48717949       0.24358974 </v>
   <v>       0.25000000       0.50000000       0.25000000 </v>
   <v>       0.25000000       0.50000000       0.25000000 </v>
   <v>       0.25320513       0.50320513       0.25641026 </v>
   <v>       0.25641026       0.50641026       0.26282051 </v>
   <v>       0.25961538       0.50961538       0.26923077 </v>
   <v>       0.26282051       0.51282051       0.27564103 </v>
   <v>       0.26602564       0.51602564       0.28205128 </v>
   <v>       0.26923077       0.51923077       0.28846154 </v>
   <v>       0.27243590       0.52243590       0.29487179 </v>
   <v>       0.27564103       0.52564103       0.30128205 </v>
   <v>       0.27884615       0.52884615       0.30769231 </v>
   <v>       0.28205128       0.53205128       0.31410256 </v>
   <v>       0.28525641       0.53525641       0.32051282 </v>
   <v>       0.28846154       0.53846154       0.32692308 </v>
   <v>       0.29166667       0.54166667       0.33333333 </v>
   <v>       0.29487179       0.54487179       0.33974359 </v>
   <v>       0.29807692       0.54807692       0.34615385 </v>
   <v>       0.30128205       0.55128205       0.35256410 </v>
   <v>       0.30448718       0.55448718       0.35897436 </v>
   <v>       0.30769231       0.55769231       0.36538462 </v>
   <v>       0.31089744       0.56089744       0.37179487 </v>
   <v>       0.31410256       0.56410256       0.37820513 </v>
   <v>       0.31730769       0.56730769       0.38461538 </v>
   <v>       0.32051282       0.57051282       0.39102564 </v>
   <v>       0.32371795       0.57371795       0.39743590 </v>
   <v>       0.32692308       0.57692308       0.40384615 </v>
   <v>       0.33012821       0.58012821       0.41025641 </v>
   <v>       0.33333333       0.58333333       0.41666667 </v>
   <v>       0.33653846       0.58653846       0.42307692 </v>
   <v>       0.33974359       0.58974359       0.42948718 </v>
   <v>       0.34294872       0.59294872       0.43589744 </v>
   <v>       0.34615385       0.59615385       0.44230769 </v>
   <v>       0.34935897       0.59935897       0.44871795 </v>
   <v>       0.35256410       0.60256410       0.45512821 </v>
   <v>       0.35576923       0.60576923       0.46153846 </v>
   <v>       0.35897436       0.60897436       0.46794872 </v>
   <v>       0.36217949       0.61217949       0.47435897 </v>
   <v>       0.36538462       0.61538462       0.48076923 </v>
   <v>       0.36858974       0.61858974       0.48717949 </v>
   <v>       0.37179487       0.62179487       0.49358974 </v>
   <v>       0.37500000       0.62500000       0.50000000 </v>
   <v>       0.37500000       0.62500000       0.50000000 </v>
   <v>       0.37179487       0.62179487       0.49358974 </v>
   <v>       0.36858974       0.61858974       0.48717949 </v>
   <v>       0.36538462       0.61538462       0.48076923 </v>
   <v>       0.36217949       0.61217949       0.47435897 </v>
   <v>       0.35897436       0.60897436       0.46794872 </v>
   <v>       0.35576923       0.60576923       0.46153846 </v>
   <v>       0.35256410       0.60256410       0.45512821 </v>
   <v>       0.34935897       0.59935897       0.44871795 </v>
   <v>       0.34615385       0.59615385       0.44230769 </v>
   <v>       0.34294872       0.59294872       0.43589744 </v>
   <v>       0.33974359       0.58974359       0.42948718 </v>
   <v>       0.33653846       0.58653846       0.42307692 </v>
   <v>       0.33333333       0.58333333       0.41666667 </v>
   <v>       0.33012821       0.58012821       0.41025641 </v>
   <v>       0.32692308       0.57692308       0.40384615 </v>
   <v>       0.32371795       0.57371795       0.39743590 </v>
   <v>       0.32051282       0.57051282       0.39102564 </v>
   <v>       0.31730769       0.56730769       0.38461538 </v>
   <v>       0.31410256       0.56410256       0.37820513 </v>
   <v>       0.31089744       0.56089744       0.37179487 </v>
   <v>       0.30769231       0.55769231       0.36538462 </v>
   <v>       0.30448718       0.55448718       0.35897436 </v>
   <v>       0.30128205       0.55128205       0.35256410 </v>
   <v>       0.29807692       0.54807692       0.34615385 </v>
   <v>       0.29487179       0.54487179       0.33974359 </v>
   <v>       0.29166667       0.54166667       0.33333333 </v>
   <v>       0.28846154       0.53846154       0.32692308 </v>
   <v>       0.28525641       0.53525641       0.32051282 </v>
   <v>       0.28205128       0.53205128       0.31410256 </v>
   <v>       0.27884615       0.52884615       0.30769231 </v>
   <v>       0.27564103       0.52564103       0.30128205 </v>
   <v>       0.27243590       0.52243590       0.29487179 </v>
   <v>       0.26923077       0.51923077       0.28846154 </v>
   <v>       0.26602564       0.51602564       0.28205128 </v>
   <v>       0.26282051       0.51282051       0.27564103 </v>
   <v>       0.25961538       0.50961538       0.26923077 </v>
   <v>       0.25641026       0.50641026       0.26282051 </v>
   <v>       0.25320513       0.50320513       0.25641026 </v>
   <v>       0.25000000       0.50000000       0.25000000 </v>
  </varray>
  <varray name="weights" >
   <v>       0.00833333 </v>
   <v>       0.00833333 </v>
   <v>       0.00833333 </v>
   <v>       0.00833333 </v>
   <v>       0.00833333 </v>
   <v>       0.00833333 </v>
   <v>       0.00833333 </v>
   <v>       0.00833333 </v>
   <v>       0.00833333 </v>
   <v>       0.00833333 </v>
   <v>       0.00833333 </v>
   <v>       0.00833333 </v>
   <v>       0.00833333 </v>
   <v>       0.00833333 </v>
   <v>       0.00833333 </v>
   <v>       0.00833333 </v>
   <v>       0.00833333 </v>
   <v>       0.00833333 </v>
   <v>       0.00833333 </v>
   <v>       0.00833333 </v>
   <v>       0.00833333 </v>
   <v>       0.00833333 </v>
   <v>       0.00833333 </v>
   <v>       0.00833333 </v>
   <v>       0.00833333 </v>
   <v>       0.00833333 </v>
   <v>       0.00833333 </v>
   <v>       0.00833333 </v>
   <v>       0.00833333 </v>
   <v>       0.00833333 </v>
   <v>       0.00833333 </v>
   <v>       0.00833333 </v>
   <v>       0.00833333 </v>
   <v>       0.00833333 </v>
   <v>       0.00833333 </v>
   <v>       0.00833333 </v>
   <v>       0.00833333 </v>
   <v>       0.00833333 </v>
   <v>       0.00833333 </v>
   <v>       0.00833333 </v>
   <v>       0.00833333 </v>
   <v>       0.00833333 </v>
   <v>       0.00833333 </v>
   <v>       0.00833333 </v>
   <v>       0.00833333 </v>
   <v>       0.00833333 </v>
   <v>       0.00833333 </v>
   <v>       0.00833333 </v>
   <v>       0.00833333 </v>
   <v>       0.00833333 </v>
   <v>       0.00833333 </v>
   <v>       0.00833333 </v>
   <v>       0.00833333 </v>
   <v>       0.00833333 </v>
   <v>       0.00833333 </v>
   <v>       0.00833333 </v>
   <v>       0.00833333 </v>
   <v>       0.00833333 </v>
   <v>       0.00833333 </v>
   <v>       0.00833333 </v>
   <v>       0.00833333 </v>
   <v>       0.00833333 </v>
   <v>       0.00833333 </v>
   <v>       0.00833333 </v>
   <v>       0.00833333 </v>
   <v>       0.00833333 </v>
   <v>       0.00833333 </v>
   <v>       0.00833333 </v>
   <v>       0.00833333 </v>
   <v>       0.00833333 </v>
   <v>       0.00833333 </v>
   <v>       0.00833333 </v>
   <v>       0.00833333 </v>
   <v>       0.00833333 </v>
   <v>       0.00833333 </v>
   <v>       0.00833333 </v>
   <v>       0.00833333 </v>
   <v>       0.00833333 </v>
   <v>       0.00833333 </v>
   <v>       0.00833333 </v>
   <v>       0.00833333 </v>
   <v>       0.00833333 </v>
   <v>       0.00833333 </v>
   <v>       0.00833333 </v>
   <v>       0.00833333 </v>
   <v>       0.00833333 </v>
   <v>       0.00833333 </v>
   <v>       0.00833333 </v>
   <v>       0.00833333 </v>
   <v>       0.00833333 </v>
   <v>       0.00833333 </v>
   <v>       0.00833333 </v>
   <v>       0.00833333 </v>
   <v>       0.00833333 </v>
   <v>       0.00833333 </v>
   <v>       0.00833333 </v>
   <v>       0.00833333 </v>
   <v>       0.00833333 </v>
   <v>       0.00833333 </v>
   <v>       0.00833333 </v>
   <v>       0.00833333 </v>
   <v>       0.00833333 </v>
   <v>       0.00833333 </v>
   <v>       0.00833333 </v>
   <v>       0.00833333 </v>
   <v>       0.00833333 </v>
   <v>       0.00833333 </v>
   <v>       0.00833333 </v>
   <v>       0.00833333 </v>
   <v>       0.00833333 </v>
   <v>       0.00833333 </v>
   <v>       0.00833333 </v>
   <v>       0.00833333 </v>
   <v>       0.00833333 </v>
   <v>       0.00833333 </v>
   <v>       0.00833333 </v>
   <v>       0.00833333 </v>
   <v>       0.00833333 </v>
   <v>       0.00833333 </v>
   <v>       0.00833333 </v>
  </varray>
 </kpoints>
 <parameters>
  <separator name="general" >
   <i type="string" name="SYSTEM">Bi2Se3</i>
   <i type="logical" name="LCOMPAT"> F  </i>
  </separator>
  <separator name="electronic" >
   <i type="string" name="PREC">normal</i>
   <i name="ENMAX">    200.00000000</i>
   <i name="ENAUG">    544.56500000</i>
   <i name="EDIFF">      0.00010000</i>
   <i type="int" name="IALGO">    38</i>
   <i type="int" name="IWAVPR">    10</i>
   <i type="int" name="NBANDS">    10</i>
   <i name="NELECT">     10.00000000</i>
   <i type="int" name="TURBO">     0</i>
   <i type="int" name="IRESTART">     0</i>
   <i type="int" name="NREBOOT">     0</i>
   <i type="int" name="NMIN">     0</i>
   <i name="EREF">      0.00000000</i>
   <separator name="electronic smearing" >
    <i type="int" name="ISMEAR">     0</i>
    <i name="SIGMA">      0.05000000</i>
    <i name="KSPACING">      0.50000000</i>
    <i type="logical" name="KGAMMA"> T  </i>
   </separator>
   <separator name="electronic projectors" >
    <i type="logical" name="LREAL"> F  </i>
    <v name="ROPT">      0.00000000</v>
    <i type="int" name="LMAXPAW">  -100</i>
    <i type="int" name="LMAXMIX">     2</i>
    <i type="logical" name="NLSPLINE"> F  </i>
   </separator>
   <separator name="electronic startup" >
    <i type="int" name="ISTART">     0</i>
    <i type="int" name="ICHARG">    11</i>
    <i type="int" name="INIWAV">     1</i>
   </separator>
   <separator name="electronic spin" >
    <i type="int" name="ISPIN">     2</i>
    <i type="logical" name="LNONCOLLINEAR"> F  </i>
    <v name="MAGMOM">      1.00000000</v>
    <i name="NUPDOWN">     -1.00000000</i>
    <i type="logical" name="LSORBIT"> F  </i>
    <v name="SAXIS">      0.00000000      0.00000000      1.00000000</v>
    <i type="logical" name="LSPIRAL"> F  </i>
    <v name="QSPIRAL">      0.00000000      0.00000000      0.00000000</v>
    <i type="logical" name="LZEROZ"> F  </i>
   </separator>
   <separator name="electronic exchange-correlation" >
    <i type="logical" name="LASPH"> F  </i>
    <i type="logical" name="LMETAGGA"> F  </i>
   </separator>
   <separator name="electronic convergence" >
    <i type="int" name="NELM">    60</i>
    <i type="int" name="NELMDL">    -5</i>
    <i type="int" name="NELMIN">     2</i>
    <i name="ENINI">    200.00000000</i>
    <separator name="electronic convergence detail" >
     <i type="logical" name="LDIAG"> T  </i>
     <i type="logical" name="LSUBROT"> F  </i>
     <i name="WEIMIN">      0.00000000</i>
     <i name="EBREAK">      0.00000250</i>
     <i name="DEPER">      0.30000000</i>
     <i type="int" name="NRMM">     4</i>
     <i name="TIME">      0.40000000</i>
    </separator>
   </separator>
   <separator name="electronic mixer" >
    <i name="AMIX">      0.40000000</i>
    <i name="BMIX">      1.00000000</i>
    <i name="AMIN">      0.10000000</i>
    <i name="AMIX_MAG">      1.60000000</i>
    <i name="BMIX_MAG">      1.00000000</i>
    <separator name="electronic mixer details" >
     <i type="int" name="IMIX">     4</i>
     <i type="logical" name="MIXFIRST"> F  </i>
     <i type="int" name="MAXMIX">   -45</i>
     <i name="WC">    100.00000000</i>
     <i type="int" name="INIMIX">     1</i>
     <i type="int" name="MIXPRE">     1</i>
     <i type="int" name="MREMOVE">     5</i>
    </separator>
   </separator>
   <separator name="electronic dipolcorrection" >
    <i type="logical" name="LDIPOL"> F  </i>
    <i type="logical" name="LMONO"> F  </i>
    <i type="int" name="IDIPOL">     0</i>
    <i name="EPSILON">      1.00000000</i>
    <v name="DIPOL">   -100.00000000   -100.00000000   -100.00000000</v>
    <i name="EFIELD">      0.00000000</i>
   </separator>
  </separator>
  <separator name="grids" >
   <i type="int" name="NGX">    10</i>
   <i type="int" name="NGY">    10</i>
   <i type="int" name="NGZ">    10</i>
   <i type="int" name="NGXF">    20</i>
   <i type="int" name="NGYF">    20</i>
   <i type="int" name="NGZF">    20</i>
   <i type="logical" name="ADDGRID"> F  </i>
  </separator>
  <separator name="ionic" >
   <i type="int" name="NSW">     0</i>
   <i type="int" name="IBRION">    -1</i>
   <i type="int" name="MDALGO">     0</i>
   <i type="int" name="ISIF">     2</i>
   <i name="PSTRESS">      0.00000000</i>
   <i name="EDIFFG">      0.00100000</i>
   <i type="int" name="NFREE">     0</i>
   <i name="POTIM">      0.50000000</i>
   <i name="SMASS">     -3.00000000</i>
   <i name="SCALEE">      1.00000000</i>
  </separator>
  <separator name="ionic md" >
   <i name="TEBEG">      0.00010000</i>
   <i name="TEEND">      0.00010000</i>
   <i type="int" name="NBLOCK">     1</i>
   <i type="int" name="KBLOCK">     1</i>
   <i type="int" name="NPACO">   256</i>
   <i name="APACO">     16.00000000</i>
  </separator>
  <separator name="symmetry" >
   <i type="int" name="ISYM">     0</i>
   <i name="SYMPREC">      0.00001000</i>
  </separator>
  <separator name="dos" >
   <i type="int" name="LORBIT">    12</i>
   <v name="RWIGS">     -1.00000000</v>
   <i type="int" name="NEDOS">   301</i>
   <i name="EMIN">     10.00000000</i>
   <i name="EMAX">    -10.00000000</i>
   <i name="EFERMI">      0.00000000</i>
  </separator>
  <separator name="writing" >
   <i type="int" name="NWRITE">     2</i>
   <i type="logical" name="LWAVE"> T  </i>
   <i type="logical" name="LDOWNSAMPLE"> F  </i>
   <i type="logical" name="LCHARG"> T  </i>
   <i type="logical" name="LPARD"> F  </i>
   <i type="logical" name="LVTOT"> F  </i>
   <i type="logical" name="LVHAR"> F  </i>
   <i type="logical" name="LELF"> F  </i>
   <i type="logical" name="LOPTICS"> F  </i>
   <v name="STM">      0.00000000      0.00000000      0.00000000      0.00000000      0.00000000      0.00000000      0.00000000</v>
  </separator>
  <separator name="performance" >
   <i type="int" name="NPAR">     1</i>
   <i type="int" name="NSIM">     4</i>
   <i type="int" name="NBLK">    -1</i>
   <i type="logical" name="LPLANE"> T  </i>
   <i type="logical" name="LSCALAPACK"> F  </i>
   <i type="logical" name="LSCAAWARE"> F  </i>
   <i type="logical" name="LSCALU"> F  </i>
   <i type="logical" name="LASYNC"> F  </i>
   <i type="logical" name="LORBITALREAL"> F  </i>
  </separator>
  <separator name="miscellaneous" >
   <i type="int" name="IDIOT">     3</i>
   <i type="int" name="ISPECIAL">     0</i>
   <i type="logical" name="LMUSIC"> F  </i>
   <v name="POMASS">     58.69000000</v>
   <v name="DARWINR">      0.00000000</v>
   <v name="DARWINV">      1.00000000</v>
   <i type="logical" name="LCORR"> T  </i>
  </separator>
  <i type="logical" name="GGA_COMPAT"> T  </i>
  <i type="logical" name="LBERRY"> F  </i>
  <i type="int" name="ICORELEVEL">     0</i>
  <i type="logical" name="LDAU"> F  </i>
  <i type="int" name="I_CONSTRAINED_M">     0</i>
  <separator name="electronic exchange-correlation" >
   <i type="string" name="GGA">PE</i>
   <i type="int" name="VOSKOWN">     0</i>
   <i type="logical" name="LHFCALC"> F  </i>
   <i type="string" name="PRECFOCK"></i>
   <i type="logical" name="LSYMGRAD"> F  </i>
   <i type="logical" name="LHFONE"> F  </i>
   <i type="logical" name="LRHFCALC"> F  </i>
   <i type="logical" name="LTHOMAS"> F  </i>
   <i type="logical" name="LMODELHF"> F  </i>
   <i name="ENCUT4O">     -1.00000000</i>
   <i type="int" name="EXXOEP">     0</i>
   <i type="int" name="FOURORBIT">     0</i>
   <i name="AEXX">      0.00000000</i>
   <i name="HFALPHA">      0.00000000</i>
   <i name="MCALPHA">      0.00000000</i>
   <i name="ALDAX">      1.00000000</i>
   <i name="AGGAX">      1.00000000</i>
   <i name="ALDAC">      1.00000000</i>
   <i name="AGGAC">      1.00000000</i>
   <i type="int" name="NKREDX">     1</i>
   <i type="int" name="NKREDY">     1</i>
   <i type="int" name="NKREDZ">     1</i>
   <i type="logical" name="SHIFTRED"> F  </i>
   <i type="logical" name="ODDONLY"> F  </i>
   <i type="logical" name="EVENONLY"> F  </i>
   <i type="int" name="LMAXFOCK">     0</i>
   <i type="int" name="NMAXFOCKAE">     0</i>
   <i type="logical" name="LFOCKAEDFT"> F  </i>
   <i name="HFSCREEN">      0.00000000</i>
   <i name="HFSCREENC">      0.00000000</i>
   <i type="int" name="NBANDSGWLOW">     0</i>
  </separator>
  <separator name="vdW DFT" >
   <i type="logical" name="LUSE_VDW"> F  </i>
   <i name="Zab_VDW">     -0.84910000</i>
   <i name="PARAM1">      0.12340000</i>
   <i name="PARAM2">      1.00000000</i>
   <i name="PARAM3">      0.00000000</i>
  </separator>
  <separator name="model GW" >
   <i type="int" name="MODEL_GW">     0</i>
   <i name="MODEL_EPS0">      6.55800000</i>
   <i name="MODEL_ALPHA">      1.00000000</i>
  </separator>
  <separator name="linear response parameters" >
   <i type="logical" name="LEPSILON"> F  </i>
   <i type="logical" name="LRPA"> F  </i>
   <i type="logical" name="LNABLA"> F  </i>
   <i type="logical" name="LVEL"> F  </i>
   <i type="int" name="KINTER">     0</i>
   <i name="CSHIFT">      0.10000000</i>
   <i name="OMEGAMAX">     -1.00000000</i>
   <i name="DEG_THRESHOLD">      0.00200000</i>
   <i name="RTIME">     -0.10000000</i>
   <i name="WPLASMAI">      0.00000000</i>
   <v name="DFIELD">      0.00000000      0.00000000      0.00000000</v>
   <v name="WPLASMA">      0.00000000      0.00000000      0.00000000      0.00000000      0.00000000      0.00000000      0.00000000      0.00000000      0.00000000</v>
  </separator>
  <separator name="orbital magnetization" >
   <i type="logical" name="NUCIND"> F  </i>
   <v name="MAGPOS">      0.00000000      0.00000000      0.00000000</v>
   <i type="logical" name="LNICSALL"> T  </i>
   <i type="logical" name="ORBITALMAG"> F  </i>
   <i type="logical" name="LMAGBLOCH"> F  </i>
   <i type="logical" name="LCHIMAG"> F  </i>
   <i type="logical" name="LGAUGE"> T  </i>
   <i type="int" name="MAGATOM">     0</i>
   <v name="MAGDIPOL">      0.00000000      0.00000000      0.00000000</v>
   <v name="AVECCONST">      0.00000000      0.00000000      0.00000000</v>
  </separator>
  <separator name="response functions" >
   <i type="logical" name="LADDER"> F  </i>
   <i type="logical" name="LRPAFORCE"> F  </i>
   <i type="logical" name="LFXC"> F  </i>
   <i type="logical" name="LHARTREE"> T  </i>
   <i type="int" name="IBSE">     0</i>
   <v type="int" name="KPOINT">    -1     0     0     0</v>
   <i type="logical" name="LTCTE"> F  </i>
   <i type="logical" name="LTETE"> F  </i>
   <i type="logical" name="LTRIPLET"> F  </i>
   <i type="logical" name="LFXCEPS"> F  </i>
   <i type="logical" name="LFXHEG"> F  </i>
   <i type="int" name="NATURALO">     2</i>
   <i type="logical" name="L2ORDER"> F  </i>
   <i type="logical" name="LMP2LT"> F  </i>
   <i type="logical" name="LUSEW"> F  </i>
   <i name="ENCUTGW">     -2.00000000</i>
   <i name="ENCUTGWSOFT">     -2.00000000</i>
   <i name="ENCUTLF">     -1.00000000</i>
   <i type="int" name="LMAXMP2">    -1</i>
   <i name="SCISSOR">      0.00000000</i>
   <i type="int" name="NOMEGA">     0</i>
   <i type="int" name="NOMEGAR">     0</i>
   <i type="int" name="NBANDSGW">    -1</i>
   <i type="int" name="NBANDSO">    -1</i>
   <i type="int" name="NBANDSV">    -1</i>
   <i type="int" name="NELM">     1</i>
   <i type="int" name="NELMHF">     1</i>
   <i type="int" name="DIM">     3</i>
   <i type="int" name="ANTIRES">     0</i>
   <i name="OMEGAMAX">    -30.00000000</i>
   <i name="OMEGAMIN">    -30.00000000</i>
   <i name="OMEGATL">   -200.00000000</i>
   <i type="int" name="OMEGAGRID">   140</i>
   <i name="CSHIFT">     -0.10000000</i>
   <i type="logical" name="SELFENERGY"> F  </i>
   <i type="logical" name="LSPECTRAL"> F  </i>
   <i type="logical" name="LSPECTRALGW"> F  </i>
   <i type="logical" name="LSINGLES"> F  </i>
   <i type="logical" name="LFERMIGW"> F  </i>
   <i type="logical" name="ODDONLYGW"> F  </i>
   <i type="logical" name="EVENONLYGW"> F  </i>
   <i type="int" name="NKREDLFX">     1</i>
   <i type="int" name="NKREDLFY">     1</i>
   <i type="int" name="NKREDLFZ">     1</i>
   <i type="int" name="MAXMEM">  2800</i>
   <i type="int" name="TELESCOPE">     0</i>
   <i type="int" name="TAUPAR">     1</i>
   <i type="int" name="OMEGAPAR">    -1</i>
   <i name="LAMBDA">      1.00000000</i>
  </separator>
  <separator name="External order field" >
   <i name="OFIELD_KAPPA">      0.00000000</i>
   <v name="OFIELD_K">      0.00000000      0.00000000      0.00000000</v>
   <i name="OFIELD_Q6_NEAR">      0.00000000</i>
   <i name="OFIELD_Q6_FAR">      0.00000000</i>
   <i name="OFIELD_A">      0.00000000</i>
  </separator>
 </parameters>
 <atominfo>
  <atoms>       1 </atoms>
  <types>       1 </types>
  <array name="atoms" >
   <dimension dim="1">ion</dimension>
   <field type="string">element</field>
   <field type="int">atomtype</field>
   <set>
    <rc><c>Ni</c><c>   1</c></rc>
   </set>
  </array>
  <array name="atomtypes" >
   <dimension dim="1">type</dimension>
   <field type="int">atomspertype</field>
   <field type="string">element</field>
   <field>mass</field>
   <field>valence</field>
   <field type="string">pseudopotential</field>
   <set>
    <rc><c>   1</c><c>Ni</c><c>     58.69000000</c><c>     10.00000000</c><c>  PAW_PBE Ni 02Aug2007                  </c></rc>
   </set>
  </array>
 </atominfo>
 <structure name="initialpos" >
  <crystal>
   <varray name="basis" >
    <v>       1.76142189       1.76142189       0.00000000 </v>
    <v>       0.00000000       1.76142189       1.76142189 </v>
    <v>       1.76142189       0.00000000       1.76142189 </v>
   </varray>
   <i name="volume">     10.93000000 </i>
   <varray name="rec_basis" >
    <v>       0.28386158       0.28386158      -0.28386158 </v>
    <v>      -0.28386158       0.28386158       0.28386158 </v>
    <v>       0.28386158      -0.28386158       0.28386158 </v>
   </varray>
  </crystal>
  <varray name="positions" >
   <v>       0.00000000       0.00000000       0.00000000 </v>
  </varray>
 </structure>
 <calculation>
  <scstep>
   <time name="dav">   25.26   11.88</time>
   <time name="total">   25.46   11.92</time>
   <energy>
    <i name="alphaZ">     46.66001921 </i>
    <i name="ewald">   -937.04180826 </i>
    <i name="hartreedc">   -225.19774787 </i>
    <i name="XCdc">     30.59328611 </i>
    <i name="pawpsdc">   1150.13756089 </i>
    <i name="pawaedc">  -1215.16768862 </i>
    <i name="eentropy">     -0.00084659 </i>
    <i name="bandstr">     81.37280050 </i>
    <i name="atom">   1076.89436726 </i>
    <i name="e_fr_energy">      8.24994263 </i>
    <i name="e_wo_entrp">      8.25078922 </i>
    <i name="e_0_energy">      8.25036593 </i>
   </energy>
  </scstep>
  <scstep>
   <time name="dav">   23.73   11.99</time>
   <time name="total">   23.84   11.99</time>
   <energy>
    <i name="e_fr_energy">     -6.41656665 </i>
    <i name="e_wo_entrp">     -6.41465038 </i>
    <i name="e_0_energy">     -6.41560852 </i>
   </energy>
  </scstep>
  <scstep>
   <time name="dav">   10.91    5.95</time>
   <time name="total">   11.03    5.96</time>
   <energy>
    <i name="e_fr_energy">     -6.56270276 </i>
    <i name="e_wo_entrp">     -6.56082534 </i>
    <i name="e_0_energy">     -6.56176405 </i>
   </energy>
  </scstep>
  <scstep>
   <time name="dav">   12.27    6.01</time>
   <time name="total">   12.39    6.02</time>
   <energy>
    <i name="e_fr_energy">     -6.56298011 </i>
    <i name="e_wo_entrp">     -6.56110241 </i>
    <i name="e_0_energy">     -6.56204126 </i>
   </energy>
  </scstep>
  <scstep>
   <time name="dav">    7.51    3.98</time>
   <time name="total">    7.64    3.98</time>
   <energy>
    <i name="e_fr_energy">     -6.56298166 </i>
    <i name="e_wo_entrp">     -6.56110396 </i>
    <i name="e_0_energy">     -6.56204281 </i>
   </energy>
  </scstep>
  <scstep>
   <time name="dav">    5.96    3.01</time>
   <time name="total">    6.05    3.01</time>
   <energy>
    <i name="alphaZ">     46.66001921 </i>
    <i name="ewald">   -937.04180826 </i>
    <i name="hartreedc">   -225.19774787 </i>
    <i name="XCdc">     30.59328611 </i>
    <i name="pawpsdc">   1150.13756089 </i>
    <i name="pawaedc">  -1215.16768862 </i>
    <i name="eentropy">     -0.00187770 </i>
    <i name="bandstr">     66.56090721 </i>
    <i name="atom">   1076.89436726 </i>
    <i name="e_fr_energy">     -6.56298177 </i>
    <i name="e_wo_entrp">     -6.56110407 </i>
    <i name="e_0_energy">     -6.56204292 </i>
   </energy>
  </scstep>
  <structure>
   <crystal>
    <varray name="basis" >
     <v>       1.76142189       1.76142189       0.00000000 </v>
     <v>       0.00000000       1.76142189       1.76142189 </v>
     <v>       1.76142189       0.00000000       1.76142189 </v>
    </varray>
    <i name="volume">     10.93000000 </i>
    <varray name="rec_basis" >
     <v>       0.28386158       0.28386158      -0.28386158 </v>
     <v>      -0.28386158       0.28386158       0.28386158 </v>
     <v>       0.28386158      -0.28386158       0.28386158 </v>
    </varray>
   </crystal>
   <varray name="positions" >
    <v>       0.00000000       0.00000000       0.00000000 </v>
   </varray>
  </structure>
  <varray name="forces" >
   <v>      -0.00001127       0.00000495      -0.00009226 </v>
  </varray>
  <varray name="stress" >
   <v>   -3089.19563192     320.24695508     455.74878420 </v>
   <v>     320.24695372   -2821.52777531    1173.92196643 </v>
   <v>     455.74878375    1173.92196593   -2370.49239189 </v>
  </varray>
  <energy>
   <i name="e_fr_energy">     -6.56298177 </i>
   <i name="e_wo_entrp">     -6.56204292 </i>
   <i name="e_0_energy">     -0.00187770 </i>
  </energy>
  <time name="totalsc">   90.00   44.96</time>
  <eigenvalues>
   <array>
    <dimension dim="1">band</dimension>
    <dimension dim="2">kpoint</dimension>
    <dimension dim="3">spin</dimension>
    <field>eigene</field>
    <field>occ</field>
    <set>
     <set comment="spin 1">
      <set comment="kpoint 1">
       <r>    0.3559    1.0000 </r>
       <r>    6.8845    1.0000 </r>
       <r>    6.8847    1.0000 </r>
       <r>    6.8847    1.0000 </r>
       <r>    7.8439    1.0000 </r>
       <r>    7.8443    1.0000 </r>
       <r>   33.1375    0.0000 </r>
       <r>   36.8646    0.0000 </r>
       <r>   36.8652    0.0000 </r>
       <r>   36.8655    0.0000 </r>
      </set>
      <set comment="kpoint 2">
       <r>    0.3602    1.0000 </r>
       <r>    6.8836    1.0000 </r>
       <r>    6.8857    1.0000 </r>
       <r>    6.8859    1.0000 </r>
       <r>    7.8431    1.0000 </r>
       <r>    7.8445    1.0000 </r>
       <r>   33.1295    0.0000 </r>
       <r>   36.7993    0.0000 </r>
       <r>   36.8294    0.0000 </r>
       <r>   36.8717    0.0000 </r>
      </set>
      <set comment="kpoint 3">
       <r>    0.3730    1.0000 </r>
       <r>    6.8803    1.0000 </r>
       <r>    6.8886    1.0000 </r>
       <r>    6.8900    1.0000 </r>
       <r>    7.8407    1.0000 </r>
       <r>    7.8450    1.0000 </r>
       <r>   33.1049    0.0000 </r>
       <r>   36.6141    0.0000 </r>
       <r>   36.7279    0.0000 </r>
       <r>   36.8912    0.0000 </r>
      </set>
      <set comment="kpoint 4">
       <r>    0.3944    1.0000 </r>
       <r>    6.8749    1.0000 </r>
       <r>    6.8935    1.0000 </r>
       <r>    6.8967    1.0000 </r>
       <r>    7.8367    1.0000 </r>
       <r>    7.8459    1.0000 </r>
       <r>   33.0612    0.0000 </r>
       <r>   36.3337    0.0000 </r>
       <r>   36.5781    0.0000 </r>
       <r>   36.9236    0.0000 </r>
      </set>
      <set comment="kpoint 5">
       <r>    0.4244    1.0000 </r>
       <r>    6.8673    1.0000 </r>
       <r>    6.9003    1.0000 </r>
       <r>    6.9060    1.0000 </r>
       <r>    7.8311    1.0000 </r>
       <r>    7.8473    1.0000 </r>
       <r>   32.9943    0.0000 </r>
       <r>   35.9852    0.0000 </r>
       <r>   36.4015    0.0000 </r>
       <r>   36.9688    0.0000 </r>
      </set>
      <set comment="kpoint 6">
       <r>    0.4630    1.0000 </r>
       <r>    6.8577    1.0000 </r>
       <r>    6.9090    1.0000 </r>
       <r>    6.9177    1.0000 </r>
       <r>    7.8851    1.0000 </r>
       <r>    7.9397    1.0000 </r>
       <r>   32.8991    0.0000 </r>
       <r>   35.5970    0.0000 </r>
       <r>   36.2188    0.0000 </r>
       <r>   37.0520    0.0000 </r>
      </set>
      <set comment="kpoint 7">
       <r>    0.5098    1.0000 </r>
       <r>    6.8461    1.0000 </r>
       <r>    6.9197    1.0000 </r>
       <r>    6.9315    1.0000 </r>
       <r>    7.8867    1.0000 </r>
       <r>    7.9265    1.0000 </r>
       <r>   32.7704    0.0000 </r>
       <r>   35.1714    0.0000 </r>
       <r>   36.0476    0.0000 </r>
       <r>   37.1262    0.0000 </r>
      </set>
      <set comment="kpoint 8">
       <r>    0.5650    1.0000 </r>
       <r>    6.8326    1.0000 </r>
       <r>    6.9323    1.0000 </r>
       <r>    6.9473    1.0000 </r>
       <r>    7.8893    1.0000 </r>
       <r>    7.9121    1.0000 </r>
       <r>   32.6037    0.0000 </r>
       <r>   34.7264    0.0000 </r>
       <r>   35.9017    0.0000 </r>
       <r>   37.2131    0.0000 </r>
      </set>
      <set comment="kpoint 9">
       <r>    0.6284    1.0000 </r>
       <r>    6.8173    1.0000 </r>
       <r>    6.9467    1.0000 </r>
       <r>    6.9647    1.0000 </r>
       <r>    7.8933    1.0000 </r>
       <r>    7.8966    1.0000 </r>
       <r>   32.3969    0.0000 </r>
       <r>   34.2695    0.0000 </r>
       <r>   35.7896    0.0000 </r>
       <r>   37.3126    0.0000 </r>
      </set>
      <set comment="kpoint 10">
       <r>    0.7001    1.0000 </r>
       <r>    6.8004    1.0000 </r>
       <r>    6.9630    1.0000 </r>
       <r>    6.9834    1.0000 </r>
       <r>    7.8801    1.0000 </r>
       <r>    7.8990    1.0000 </r>
       <r>   32.1510    0.0000 </r>
       <r>   33.8057    0.0000 </r>
       <r>   35.7151    0.0000 </r>
       <r>   37.4242    0.0000 </r>
      </set>
      <set comment="kpoint 11">
       <r>    0.7798    1.0000 </r>
       <r>    6.7820    1.0000 </r>
       <r>    6.9812    1.0000 </r>
       <r>    7.0028    1.0000 </r>
       <r>    7.8626    1.0000 </r>
       <r>    7.9067    1.0000 </r>
       <r>   31.8698    0.0000 </r>
       <r>   33.3385    0.0000 </r>
       <r>   35.6781    0.0000 </r>
       <r>   37.5480    0.0000 </r>
      </set>
      <set comment="kpoint 12">
       <r>    0.8675    1.0000 </r>
       <r>    6.7623    1.0000 </r>
       <r>    7.0011    1.0000 </r>
       <r>    7.0225    1.0000 </r>
       <r>    7.8443    1.0000 </r>
       <r>    7.9170    1.0000 </r>
       <r>   31.5585    0.0000 </r>
       <r>   32.8704    0.0000 </r>
       <r>   35.6757    0.0000 </r>
       <r>   37.6836    0.0000 </r>
      </set>
      <set comment="kpoint 13">
       <r>    0.9629    1.0000 </r>
       <r>    6.7413    1.0000 </r>
       <r>    7.0228    1.0000 </r>
       <r>    7.0418    1.0000 </r>
       <r>    7.8254    1.0000 </r>
       <r>    7.9304    1.0000 </r>
       <r>   31.2229    0.0000 </r>
       <r>   32.4034    0.0000 </r>
       <r>   35.7039    0.0000 </r>
       <r>   37.8305    0.0000 </r>
      </set>
      <set comment="kpoint 14">
       <r>    1.0660    1.0000 </r>
       <r>    6.7194    1.0000 </r>
       <r>    7.0463    1.0000 </r>
       <r>    7.0603    1.0000 </r>
       <r>    7.8060    1.0000 </r>
       <r>    7.9474    1.0000 </r>
       <r>   30.8683    0.0000 </r>
       <r>   31.9388    0.0000 </r>
       <r>   35.7589    0.0000 </r>
       <r>   37.9885    0.0000 </r>
      </set>
      <set comment="kpoint 15">
       <r>    1.1766    1.0000 </r>
       <r>    6.6966    1.0000 </r>
       <r>    7.0714    1.0000 </r>
       <r>    7.0771    1.0000 </r>
       <r>    7.7862    1.0000 </r>
       <r>    7.9686    1.0000 </r>
       <r>   30.4995    0.0000 </r>
       <r>   31.4776    0.0000 </r>
       <r>   35.8370    0.0000 </r>
       <r>   38.1561    0.0000 </r>
      </set>
      <set comment="kpoint 16">
       <r>    1.2945    1.0000 </r>
       <r>    6.6732    1.0000 </r>
       <r>    7.0918    1.0000 </r>
       <r>    7.0983    1.0000 </r>
       <r>    7.7662    1.0000 </r>
       <r>    7.9947    1.0000 </r>
       <r>   30.1201    0.0000 </r>
       <r>   31.0207    0.0000 </r>
       <r>   35.9353    0.0000 </r>
       <r>   38.3331    0.0000 </r>
      </set>
      <set comment="kpoint 17">
       <r>    1.4194    1.0000 </r>
       <r>    6.6493    1.0000 </r>
       <r>    7.1036    1.0000 </r>
       <r>    7.1267    1.0000 </r>
       <r>    7.7461    1.0000 </r>
       <r>    8.0261    1.0000 </r>
       <r>   29.7331    0.0000 </r>
       <r>   30.5687    0.0000 </r>
       <r>   36.0514    0.0000 </r>
       <r>   38.5497    0.0000 </r>
      </set>
      <set comment="kpoint 18">
       <r>    1.5505    1.0000 </r>
       <r>    6.6007    1.0000 </r>
       <r>    7.0639    1.0000 </r>
       <r>    7.1568    1.0000 </r>
       <r>    7.7261    1.0000 </r>
       <r>    7.9987    1.0000 </r>
       <r>   29.3271    0.0000 </r>
       <r>   30.0982    0.0000 </r>
       <r>   36.1832    0.0000 </r>
       <r>   38.6635    0.0000 </r>
      </set>
      <set comment="kpoint 19">
       <r>    1.6886    1.0000 </r>
       <r>    6.5752    1.0000 </r>
       <r>    7.0715    1.0000 </r>
       <r>    7.1884    1.0000 </r>
       <r>    7.7064    1.0000 </r>
       <r>    8.0328    1.0000 </r>
       <r>   28.9303    0.0000 </r>
       <r>   29.6574    0.0000 </r>
       <r>   36.3296    0.0000 </r>
       <r>   38.3719    0.0000 </r>
      </set>
      <set comment="kpoint 20">
       <r>    1.8329    1.0000 </r>
       <r>    6.5498    1.0000 </r>
       <r>    7.0755    1.0000 </r>
       <r>    7.2215    1.0000 </r>
       <r>    7.6871    1.0000 </r>
       <r>    8.0727    1.0000 </r>
       <r>   28.5316    0.0000 </r>
       <r>   29.2229    0.0000 </r>
       <r>   36.4891    0.0000 </r>
       <r>   38.0742    0.0000 </r>
      </set>
      <set comment="kpoint 21">
       <r>    1.9830    1.0000 </r>
       <r>    6.5247    1.0000 </r>
       <r>    7.0757    1.0000 </r>
       <r>    7.2560    1.0000 </r>
       <r>    7.6684    1.0000 </r>
       <r>    8.1185    1.0000 </r>
       <r>   28.1321    0.0000 </r>
       <r>   28.7952    0.0000 </r>
       <r>   36.6608    0.0000 </r>
       <r>   37.7784    0.0000 </r>
      </set>
      <set comment="kpoint 22">
       <r>    2.1386    1.0000 </r>
       <r>    6.5001    1.0000 </r>
       <r>    7.0721    1.0000 </r>
       <r>    7.2919    1.0000 </r>
       <r>    7.6505    1.0000 </r>
       <r>    8.1704    1.0000 </r>
       <r>   27.7328    0.0000 </r>
       <r>   28.3745    0.0000 </r>
       <r>   36.8438    0.0000 </r>
       <r>   37.4829    0.0000 </r>
      </set>
      <set comment="kpoint 23">
       <r>    2.2993    1.0000 </r>
       <r>    6.4762    1.0000 </r>
       <r>    7.0647    1.0000 </r>
       <r>    7.3291    1.0000 </r>
       <r>    7.6334    1.0000 </r>
       <r>    8.2285    1.0000 </r>
       <r>   27.3344    0.0000 </r>
       <r>   27.9611    0.0000 </r>
       <r>   37.0376    0.0000 </r>
       <r>   37.1892    0.0000 </r>
      </set>
      <set comment="kpoint 24">
       <r>    2.4646    1.0000 </r>
       <r>    6.4533    1.0000 </r>
       <r>    7.0535    1.0000 </r>
       <r>    7.3677    1.0000 </r>
       <r>    7.6175    1.0000 </r>
       <r>    8.2927    1.0000 </r>
       <r>   26.9374    0.0000 </r>
       <r>   27.5552    0.0000 </r>
       <r>   36.8978    0.0000 </r>
       <r>   37.2415    0.0000 </r>
      </set>
      <set comment="kpoint 25">
       <r>    2.6322    1.0000 </r>
       <r>    6.4315    1.0000 </r>
       <r>    7.0331    1.0000 </r>
       <r>    7.4075    1.0000 </r>
       <r>    7.5546    1.0000 </r>
       <r>    8.2770    1.0000 </r>
       <r>   26.5424    0.0000 </r>
       <r>   27.1444    0.0000 </r>
       <r>   36.5833    0.0000 </r>
       <r>   37.4552    0.0000 </r>
      </set>
      <set comment="kpoint 26">
       <r>    2.8046    1.0000 </r>
       <r>    6.4110    1.0000 </r>
       <r>    7.0162    1.0000 </r>
       <r>    7.4484    1.0000 </r>
       <r>    7.5388    1.0000 </r>
       <r>    8.3473    1.0000 </r>
       <r>   26.1497    0.0000 </r>
       <r>   26.7550    0.0000 </r>
       <r>   36.3025    0.0000 </r>
       <r>   37.6793    0.0000 </r>
      </set>
      <set comment="kpoint 27">
       <r>    2.9797    1.0000 </r>
       <r>    6.3920    1.0000 </r>
       <r>    6.9959    1.0000 </r>
       <r>    7.4905    1.0000 </r>
       <r>    7.5243    1.0000 </r>
       <r>    8.4238    0.9997 </r>
       <r>   25.7596    0.0000 </r>
       <r>   26.3739    0.0000 </r>
       <r>   36.0267    0.0000 </r>
       <r>   37.6712    0.0000 </r>
      </set>
      <set comment="kpoint 28">
       <r>    3.1567    1.0000 </r>
       <r>    6.2519    1.0000 </r>
       <r>    6.9376    1.0000 </r>
       <r>    7.4771    1.0000 </r>
       <r>    7.4826    1.0000 </r>
       <r>    8.5043    0.8819 </r>
       <r>   25.2546    0.0000 </r>
       <r>   25.9989    0.0000 </r>
       <r>   35.7522    0.0000 </r>
       <r>   37.1871    0.0000 </r>
      </set>
      <set comment="kpoint 29">
       <r>    3.3350    1.0000 </r>
       <r>    6.2339    1.0000 </r>
       <r>    6.9097    1.0000 </r>
       <r>    7.4708    1.0000 </r>
       <r>    7.5184    1.0000 </r>
       <r>    8.5941    0.0877 </r>
       <r>   24.8699    0.0000 </r>
       <r>   25.6347    0.0000 </r>
       <r>   35.4869    0.0000 </r>
       <r>   36.7695    0.0000 </r>
      </set>
      <set comment="kpoint 30">
       <r>    3.5136    1.0000 </r>
       <r>    6.2179    1.0000 </r>
       <r>    6.8792    1.0000 </r>
       <r>    7.4607    1.0000 </r>
       <r>    7.5604    1.0000 </r>
       <r>    8.6908    0.0000 </r>
       <r>   24.4888    0.0000 </r>
       <r>   25.2794    0.0000 </r>
       <r>   35.2281    0.0000 </r>
       <r>   36.3532    0.0000 </r>
      </set>
      <set comment="kpoint 31">
       <r>    3.6916    1.0000 </r>
       <r>    6.2042    1.0000 </r>
       <r>    6.8460    1.0000 </r>
       <r>    7.4525    1.0000 </r>
       <r>    7.6031    1.0000 </r>
       <r>    8.7950    0.0000 </r>
       <r>   24.1111    0.0000 </r>
       <r>   24.9332    0.0000 </r>
       <r>   34.9764    0.0000 </r>
       <r>   35.9394    0.0000 </r>
      </set>
      <set comment="kpoint 32">
       <r>    3.8679    1.0000 </r>
       <r>    6.1929    1.0000 </r>
       <r>    6.8104    1.0000 </r>
       <r>    7.4462    1.0000 </r>
       <r>    7.6465    1.0000 </r>
       <r>    8.9072    0.0000 </r>
       <r>   23.7372    0.0000 </r>
       <r>   24.5962    0.0000 </r>
       <r>   34.7321    0.0000 </r>
       <r>   35.5291    0.0000 </r>
      </set>
      <set comment="kpoint 33">
       <r>    4.0414    1.0000 </r>
       <r>    6.1842    1.0000 </r>
       <r>    6.7725    1.0000 </r>
       <r>    7.4421    1.0000 </r>
       <r>    7.6905    1.0000 </r>
       <r>    9.0280    0.0000 </r>
       <r>   23.3670    0.0000 </r>
       <r>   24.2687    0.0000 </r>
       <r>   34.4955    0.0000 </r>
       <r>   35.1228    0.0000 </r>
      </set>
      <set comment="kpoint 34">
       <r>    4.2109    1.0000 </r>
       <r>    6.1781    1.0000 </r>
       <r>    6.7324    1.0000 </r>
       <r>    7.4401    1.0000 </r>
       <r>    7.7351    1.0000 </r>
       <r>    9.1580    0.0000 </r>
       <r>   23.0007    0.0000 </r>
       <r>   23.9508    0.0000 </r>
       <r>   34.2670    0.0000 </r>
       <r>   34.7208    0.0000 </r>
      </set>
      <set comment="kpoint 35">
       <r>    4.3753    1.0000 </r>
       <r>    6.1749    1.0000 </r>
       <r>    6.6904    1.0000 </r>
       <r>    7.4403    1.0000 </r>
       <r>    7.7801    1.0000 </r>
       <r>    9.2981    0.0000 </r>
       <r>   22.6382    0.0000 </r>
       <r>   23.6427    0.0000 </r>
       <r>   34.0467    0.0000 </r>
       <r>   34.3237    0.0000 </r>
      </set>
      <set comment="kpoint 36">
       <r>    4.5333    1.0000 </r>
       <r>    6.1747    1.0000 </r>
       <r>    6.6466    1.0000 </r>
       <r>    7.4429    1.0000 </r>
       <r>    7.8255    1.0000 </r>
       <r>    9.4491    0.0000 </r>
       <r>   22.2798    0.0000 </r>
       <r>   23.3447    0.0000 </r>
       <r>   33.8348    0.0000 </r>
       <r>   33.9315    0.0000 </r>
      </set>
      <set comment="kpoint 37">
       <r>    4.6838    1.0000 </r>
       <r>    6.1777    1.0000 </r>
       <r>    6.6009    1.0000 </r>
       <r>    7.4478    1.0000 </r>
       <r>    7.8713    1.0000 </r>
       <r>    9.6118    0.0000 </r>
       <r>   21.9253    0.0000 </r>
       <r>   23.0567    0.0000 </r>
       <r>   33.5445    0.0000 </r>
       <r>   33.6314    0.0000 </r>
      </set>
      <set comment="kpoint 38">
       <r>    4.8257    1.0000 </r>
       <r>    6.1839    1.0000 </r>
       <r>    6.5537    1.0000 </r>
       <r>    7.4551    1.0000 </r>
       <r>    7.9173    1.0000 </r>
       <r>    9.7869    0.0000 </r>
       <r>   21.5749    0.0000 </r>
       <r>   22.7790    0.0000 </r>
       <r>   33.1628    0.0000 </r>
       <r>   33.4366    0.0000 </r>
      </set>
      <set comment="kpoint 39">
       <r>    4.9579    1.0000 </r>
       <r>    6.1935    1.0000 </r>
       <r>    6.5050    1.0000 </r>
       <r>    7.4649    1.0000 </r>
       <r>    7.9635    1.0000 </r>
       <r>    9.9750    0.0000 </r>
       <r>   21.2287    0.0000 </r>
       <r>   22.5117    0.0000 </r>
       <r>   32.7866    0.0000 </r>
       <r>   33.2504    0.0000 </r>
      </set>
      <set comment="kpoint 40">
       <r>    5.0790    1.0000 </r>
       <r>    6.1722    1.0000 </r>
       <r>    6.4449    1.0000 </r>
       <r>    7.3818    1.0000 </r>
       <r>    7.9070    1.0000 </r>
       <r>   10.1761    0.0000 </r>
       <r>   20.8464    0.0000 </r>
       <r>   22.2451    0.0000 </r>
       <r>   32.3362    0.0000 </r>
       <r>   33.0725    0.0000 </r>
      </set>
      <set comment="kpoint 41">
       <r>    5.0790    1.0000 </r>
       <r>    6.1722    1.0000 </r>
       <r>    6.4449    1.0000 </r>
       <r>    7.3818    1.0000 </r>
       <r>    7.9070    1.0000 </r>
       <r>   10.1761    0.0000 </r>
       <r>   20.8464    0.0000 </r>
       <r>   22.2451    0.0000 </r>
       <r>   32.3362    0.0000 </r>
       <r>   33.0725    0.0000 </r>
      </set>
      <set comment="kpoint 42">
       <r>    5.1315    1.0000 </r>
       <r>    6.2418    1.0000 </r>
       <r>    6.4790    1.0000 </r>
       <r>    7.4081    1.0000 </r>
       <r>    7.9420    1.0000 </r>
       <r>   10.2908    0.0000 </r>
       <r>   20.8348    0.0000 </r>
       <r>   22.2269    0.0000 </r>
       <r>   32.2432    0.0000 </r>
       <r>   33.0990    0.0000 </r>
      </set>
      <set comment="kpoint 43">
       <r>    5.1587    1.0000 </r>
       <r>    6.2474    1.0000 </r>
       <r>    6.4644    1.0000 </r>
       <r>    7.4118    1.0000 </r>
       <r>    7.9526    1.0000 </r>
       <r>   10.3431    0.0000 </r>
       <r>   20.7125    0.0000 </r>
       <r>   22.2047    0.0000 </r>
       <r>   32.0992    0.0000 </r>
       <r>   33.1103    0.0000 </r>
      </set>
      <set comment="kpoint 44">
       <r>    5.1842    1.0000 </r>
       <r>    6.2547    1.0000 </r>
       <r>    6.4497    1.0000 </r>
       <r>    7.4150    1.0000 </r>
       <r>    7.9649    1.0000 </r>
       <r>   10.3963    0.0000 </r>
       <r>   20.5694    0.0000 </r>
       <r>   22.2069    0.0000 </r>
       <r>   31.9358    0.0000 </r>
       <r>   33.1425    0.0000 </r>
      </set>
      <set comment="kpoint 45">
       <r>    5.2079    1.0000 </r>
       <r>    6.2635    1.0000 </r>
       <r>    6.4350    1.0000 </r>
       <r>    7.4176    1.0000 </r>
       <r>    7.9787    1.0000 </r>
       <r>   10.4506    0.0000 </r>
       <r>   20.4111    0.0000 </r>
       <r>   22.2280    0.0000 </r>
       <r>   31.7612    0.0000 </r>
       <r>   33.1876    0.0000 </r>
      </set>
      <set comment="kpoint 46">
       <r>    5.2298    1.0000 </r>
       <r>    6.2740    1.0000 </r>
       <r>    6.4204    1.0000 </r>
       <r>    7.4199    1.0000 </r>
       <r>    7.9941    1.0000 </r>
       <r>   10.5059    0.0000 </r>
       <r>   20.2420    0.0000 </r>
       <r>   22.2635    0.0000 </r>
       <r>   31.5805    0.0000 </r>
       <r>   33.2406    0.0000 </r>
      </set>
      <set comment="kpoint 47">
       <r>    5.2498    1.0000 </r>
       <r>    6.2861    1.0000 </r>
       <r>    6.4059    1.0000 </r>
       <r>    7.4216    1.0000 </r>
       <r>    8.0109    1.0000 </r>
       <r>   10.5623    0.0000 </r>
       <r>   20.0657    0.0000 </r>
       <r>   22.3100    0.0000 </r>
       <r>   31.3961    0.0000 </r>
       <r>   33.2989    0.0000 </r>
      </set>
      <set comment="kpoint 48">
       <r>    5.2680    1.0000 </r>
       <r>    6.2996    1.0000 </r>
       <r>    6.3916    1.0000 </r>
       <r>    7.4230    1.0000 </r>
       <r>    8.0290    1.0000 </r>
       <r>   10.6199    0.0000 </r>
       <r>   19.8847    0.0000 </r>
       <r>   22.3650    0.0000 </r>
       <r>   31.2100    0.0000 </r>
       <r>   33.3609    0.0000 </r>
      </set>
      <set comment="kpoint 49">
       <r>    5.2843    1.0000 </r>
       <r>    6.3142    1.0000 </r>
       <r>    6.3777    1.0000 </r>
       <r>    7.4239    1.0000 </r>
       <r>    8.0484    1.0000 </r>
       <r>   10.6788    0.0000 </r>
       <r>   19.7007    0.0000 </r>
       <r>   22.4268    0.0000 </r>
       <r>   31.0229    0.0000 </r>
       <r>   33.4255    0.0000 </r>
      </set>
      <set comment="kpoint 50">
       <r>    5.2987    1.0000 </r>
       <r>    6.3289    1.0000 </r>
       <r>    6.3653    1.0000 </r>
       <r>    7.4246    1.0000 </r>
       <r>    8.0689    1.0000 </r>
       <r>   10.7389    0.0000 </r>
       <r>   19.5151    0.0000 </r>
       <r>   22.4942    0.0000 </r>
       <r>   30.8357    0.0000 </r>
       <r>   33.4922    0.0000 </r>
      </set>
      <set comment="kpoint 51">
       <r>    5.3115    1.0000 </r>
       <r>    6.3372    1.0000 </r>
       <r>    6.3608    1.0000 </r>
       <r>    7.4248    1.0000 </r>
       <r>    8.0904    1.0000 </r>
       <r>   10.8003    0.0000 </r>
       <r>   19.3288    0.0000 </r>
       <r>   22.5663    0.0000 </r>
       <r>   30.6487    0.0000 </r>
       <r>   33.5603    0.0000 </r>
      </set>
      <set comment="kpoint 52">
       <r>    5.3226    1.0000 </r>
       <r>    6.3295    1.0000 </r>
       <r>    6.3735    1.0000 </r>
       <r>    7.4248    1.0000 </r>
       <r>    8.1128    1.0000 </r>
       <r>   10.8631    0.0000 </r>
       <r>   19.1424    0.0000 </r>
       <r>   22.6424    0.0000 </r>
       <r>   30.4624    0.0000 </r>
       <r>   33.6296    0.0000 </r>
      </set>
      <set comment="kpoint 53">
       <r>    5.3321    1.0000 </r>
       <r>    6.3171    1.0000 </r>
       <r>    6.3920    1.0000 </r>
       <r>    7.4245    1.0000 </r>
       <r>    8.1359    1.0000 </r>
       <r>   10.9273    0.0000 </r>
       <r>   18.9566    0.0000 </r>
       <r>   22.7221    0.0000 </r>
       <r>   30.2768    0.0000 </r>
       <r>   33.6997    0.0000 </r>
      </set>
      <set comment="kpoint 54">
       <r>    5.3402    1.0000 </r>
       <r>    6.3041    1.0000 </r>
       <r>    6.4123    1.0000 </r>
       <r>    7.4239    1.0000 </r>
       <r>    8.1598    1.0000 </r>
       <r>   10.9929    0.0000 </r>
       <r>   18.7718    0.0000 </r>
       <r>   22.8051    0.0000 </r>
       <r>   30.0923    0.0000 </r>
       <r>   33.7705    0.0000 </r>
      </set>
      <set comment="kpoint 55">
       <r>    5.3471    1.0000 </r>
       <r>    6.2911    1.0000 </r>
       <r>    6.4334    1.0000 </r>
       <r>    7.4231    1.0000 </r>
       <r>    8.1842    1.0000 </r>
       <r>   11.0600    0.0000 </r>
       <r>   18.5882    0.0000 </r>
       <r>   22.8910    0.0000 </r>
       <r>   29.9090    0.0000 </r>
       <r>   33.8417    0.0000 </r>
      </set>
      <set comment="kpoint 56">
       <r>    5.3507    1.0000 </r>
       <r>    6.2780    1.0000 </r>
       <r>    6.4540    1.0000 </r>
       <r>    7.4213    1.0000 </r>
       <r>    8.1465    1.0000 </r>
       <r>   11.1193    0.0000 </r>
       <r>   18.4060    0.0000 </r>
       <r>   22.9793    0.0000 </r>
       <r>   29.7257    0.0000 </r>
       <r>   33.9128    0.0000 </r>
      </set>
      <set comment="kpoint 57">
       <r>    5.3554    1.0000 </r>
       <r>    6.2654    1.0000 </r>
       <r>    6.4760    1.0000 </r>
       <r>    7.4199    1.0000 </r>
       <r>    8.1695    1.0000 </r>
       <r>   11.1896    0.0000 </r>
       <r>   18.2259    0.0000 </r>
       <r>   23.0707    0.0000 </r>
       <r>   29.5451    0.0000 </r>
       <r>   33.9843    0.0000 </r>
      </set>
      <set comment="kpoint 58">
       <r>    5.3855    1.0000 </r>
       <r>    6.2569    1.0000 </r>
       <r>    6.4981    1.0000 </r>
       <r>    7.4238    1.0000 </r>
       <r>    8.2021    1.0000 </r>
       <r>   11.2908    0.0000 </r>
       <r>   18.0553    0.0000 </r>
       <r>   23.1716    0.0000 </r>
       <r>   29.3699    0.0000 </r>
       <r>   34.0661    0.0000 </r>
      </set>
      <set comment="kpoint 59">
       <r>    5.3882    1.0000 </r>
       <r>    6.2454    1.0000 </r>
       <r>    6.5203    1.0000 </r>
       <r>    7.4214    1.0000 </r>
       <r>    8.2251    1.0000 </r>
       <r>   11.3633    0.0000 </r>
       <r>   17.8795    0.0000 </r>
       <r>   23.2680    0.0000 </r>
       <r>   29.1920    0.0000 </r>
       <r>   34.1366    0.0000 </r>
      </set>
      <set comment="kpoint 60">
       <r>    5.3902    1.0000 </r>
       <r>    6.2342    1.0000 </r>
       <r>    6.5423    1.0000 </r>
       <r>    7.4190    1.0000 </r>
       <r>    8.2480    1.0000 </r>
       <r>   11.4372    0.0000 </r>
       <r>   17.7063    0.0000 </r>
       <r>   23.3667    0.0000 </r>
       <r>   29.0157    0.0000 </r>
       <r>   34.2065    0.0000 </r>
      </set>
      <set comment="kpoint 61">
       <r>    5.3916    1.0000 </r>
       <r>    6.2234    1.0000 </r>
       <r>    6.5641    1.0000 </r>
       <r>    7.4164    1.0000 </r>
       <r>    8.2706    1.0000 </r>
       <r>   11.5124    0.0000 </r>
       <r>   17.5359    0.0000 </r>
       <r>   23.4675    0.0000 </r>
       <r>   28.8411    0.0000 </r>
       <r>   34.2757    0.0000 </r>
      </set>
      <set comment="kpoint 62">
       <r>    5.3924    1.0000 </r>
       <r>    6.2130    1.0000 </r>
       <r>    6.5855    1.0000 </r>
       <r>    7.4139    1.0000 </r>
       <r>    8.2928    1.0000 </r>
       <r>   11.5889    0.0000 </r>
       <r>   17.3686    0.0000 </r>
       <r>   23.5705    0.0000 </r>
       <r>   28.6683    0.0000 </r>
       <r>   34.3438    0.0000 </r>
      </set>
      <set comment="kpoint 63">
       <r>    5.3928    1.0000 </r>
       <r>    6.2031    1.0000 </r>
       <r>    6.6065    1.0000 </r>
       <r>    7.4113    1.0000 </r>
       <r>    8.3145    1.0000 </r>
       <r>   11.6664    0.0000 </r>
       <r>   17.2045    0.0000 </r>
       <r>   23.6755    0.0000 </r>
       <r>   28.4972    0.0000 </r>
       <r>   34.4107    0.0000 </r>
      </set>
      <set comment="kpoint 64">
       <r>    5.3929    1.0000 </r>
       <r>    6.1937    1.0000 </r>
       <r>    6.6268    1.0000 </r>
       <r>    7.4087    1.0000 </r>
       <r>    8.3356    1.0000 </r>
       <r>   11.7449    0.0000 </r>
       <r>   17.0441    0.0000 </r>
       <r>   23.7826    0.0000 </r>
       <r>   28.3280    0.0000 </r>
       <r>   34.4761    0.0000 </r>
      </set>
      <set comment="kpoint 65">
       <r>    5.3927    1.0000 </r>
       <r>    6.1848    1.0000 </r>
       <r>    6.6465    1.0000 </r>
       <r>    7.4061    1.0000 </r>
       <r>    8.3561    1.0000 </r>
       <r>   11.8240    0.0000 </r>
       <r>   16.8876    0.0000 </r>
       <r>   23.8915    0.0000 </r>
       <r>   28.1607    0.0000 </r>
       <r>   34.5398    0.0000 </r>
      </set>
      <set comment="kpoint 66">
       <r>    5.3924    1.0000 </r>
       <r>    6.1764    1.0000 </r>
       <r>    6.6653    1.0000 </r>
       <r>    7.4035    1.0000 </r>
       <r>    8.3757    1.0000 </r>
       <r>   11.9036    0.0000 </r>
       <r>   16.7354    0.0000 </r>
       <r>   24.0024    0.0000 </r>
       <r>   27.9954    0.0000 </r>
       <r>   34.6014    0.0000 </r>
      </set>
      <set comment="kpoint 67">
       <r>    5.3919    1.0000 </r>
       <r>    6.1686    1.0000 </r>
       <r>    6.6834    1.0000 </r>
       <r>    7.4010    1.0000 </r>
       <r>    8.3944    1.0000 </r>
       <r>   11.9832    0.0000 </r>
       <r>   16.5880    0.0000 </r>
       <r>   24.1150    0.0000 </r>
       <r>   27.8321    0.0000 </r>
       <r>   34.6608    0.0000 </r>
      </set>
      <set comment="kpoint 68">
       <r>    5.3914    1.0000 </r>
       <r>    6.1613    1.0000 </r>
       <r>    6.7005    1.0000 </r>
       <r>    7.3986    1.0000 </r>
       <r>    8.4122    0.9999 </r>
       <r>   12.0625    0.0000 </r>
       <r>   16.4458    0.0000 </r>
       <r>   24.2292    0.0000 </r>
       <r>   27.6711    0.0000 </r>
       <r>   34.7176    0.0000 </r>
      </set>
      <set comment="kpoint 69">
       <r>    5.3908    1.0000 </r>
       <r>    6.1546    1.0000 </r>
       <r>    6.7166    1.0000 </r>
       <r>    7.3962    1.0000 </r>
       <r>    8.4290    0.9995 </r>
       <r>   12.1409    0.0000 </r>
       <r>   16.3094    0.0000 </r>
       <r>   24.3451    0.0000 </r>
       <r>   27.5123    0.0000 </r>
       <r>   34.7715    0.0000 </r>
      </set>
      <set comment="kpoint 70">
       <r>    5.3903    1.0000 </r>
       <r>    6.1485    1.0000 </r>
       <r>    6.7317    1.0000 </r>
       <r>    7.3940    1.0000 </r>
       <r>    8.4446    0.9980 </r>
       <r>   12.2178    0.0000 </r>
       <r>   16.1795    0.0000 </r>
       <r>   24.4623    0.0000 </r>
       <r>   27.3561    0.0000 </r>
       <r>   34.8221    0.0000 </r>
      </set>
      <set comment="kpoint 71">
       <r>    5.3974    1.0000 </r>
       <r>    6.1440    1.0000 </r>
       <r>    6.7865    1.0000 </r>
       <r>    7.4206    1.0000 </r>
       <r>    8.4263    0.9996 </r>
       <r>   12.2994    0.0000 </r>
       <r>   16.0629    0.0000 </r>
       <r>   24.5823    0.0000 </r>
       <r>   27.2304    0.0000 </r>
       <r>   34.8679    0.0000 </r>
      </set>
      <set comment="kpoint 72">
       <r>    5.3958    1.0000 </r>
       <r>    6.1388    1.0000 </r>
       <r>    6.7983    1.0000 </r>
       <r>    7.4179    1.0000 </r>
       <r>    8.4383    0.9989 </r>
       <r>   12.3699    0.0000 </r>
       <r>   15.9477    0.0000 </r>
       <r>   24.7007    0.0000 </r>
       <r>   27.0794    0.0000 </r>
       <r>   34.9117    0.0000 </r>
      </set>
      <set comment="kpoint 73">
       <r>    5.3944    1.0000 </r>
       <r>    6.1342    1.0000 </r>
       <r>    6.8087    1.0000 </r>
       <r>    7.4155    1.0000 </r>
       <r>    8.4490    0.9970 </r>
       <r>   12.4366    0.0000 </r>
       <r>   15.8416    0.0000 </r>
       <r>   24.8193    0.0000 </r>
       <r>   26.9319    0.0000 </r>
       <r>   34.9512    0.0000 </r>
      </set>
      <set comment="kpoint 74">
       <r>    5.3931    1.0000 </r>
       <r>    6.1302    1.0000 </r>
       <r>    6.8179    1.0000 </r>
       <r>    7.4133    1.0000 </r>
       <r>    8.4584    0.9935 </r>
       <r>   12.4982    0.0000 </r>
       <r>   15.7457    0.0000 </r>
       <r>   24.9376    0.0000 </r>
       <r>   26.7887    0.0000 </r>
       <r>   34.9863    0.0000 </r>
      </set>
      <set comment="kpoint 75">
       <r>    5.3920    1.0000 </r>
       <r>    6.1268    1.0000 </r>
       <r>    6.8257    1.0000 </r>
       <r>    7.4114    1.0000 </r>
       <r>    8.4664    0.9879 </r>
       <r>   12.5535    0.0000 </r>
       <r>   15.6612    0.0000 </r>
       <r>   25.0543    0.0000 </r>
       <r>   26.6508    0.0000 </r>
       <r>   35.0166    0.0000 </r>
      </set>
      <set comment="kpoint 76">
       <r>    5.3910    1.0000 </r>
       <r>    6.1240    1.0000 </r>
       <r>    6.8322    1.0000 </r>
       <r>    7.4098    1.0000 </r>
       <r>    8.4730    0.9807 </r>
       <r>   12.6014    0.0000 </r>
       <r>   15.5896    0.0000 </r>
       <r>   25.1674    0.0000 </r>
       <r>   26.5204    0.0000 </r>
       <r>   35.0418    0.0000 </r>
      </set>
      <set comment="kpoint 77">
       <r>    5.3903    1.0000 </r>
       <r>    6.1218    1.0000 </r>
       <r>    6.8373    1.0000 </r>
       <r>    7.4086    1.0000 </r>
       <r>    8.4782    0.9727 </r>
       <r>   12.6404    0.0000 </r>
       <r>   15.5321    0.0000 </r>
       <r>   25.2734    0.0000 </r>
       <r>   26.4010    0.0000 </r>
       <r>   35.0616    0.0000 </r>
      </set>
      <set comment="kpoint 78">
       <r>    5.3897    1.0000 </r>
       <r>    6.1203    1.0000 </r>
       <r>    6.8409    1.0000 </r>
       <r>    7.4077    1.0000 </r>
       <r>    8.4819    0.9655 </r>
       <r>   12.6692    0.0000 </r>
       <r>   15.4900    0.0000 </r>
       <r>   25.3654    0.0000 </r>
       <r>   26.2993    0.0000 </r>
       <r>   35.0759    0.0000 </r>
      </set>
      <set comment="kpoint 79">
       <r>    5.3894    1.0000 </r>
       <r>    6.1193    1.0000 </r>
       <r>    6.8431    1.0000 </r>
       <r>    7.4071    1.0000 </r>
       <r>    8.4841    0.9604 </r>
       <r>   12.6870    0.0000 </r>
       <r>   15.4642    0.0000 </r>
       <r>   25.4318    0.0000 </r>
       <r>   26.2271    0.0000 </r>
       <r>   35.0846    0.0000 </r>
      </set>
      <set comment="kpoint 80">
       <r>    5.3893    1.0000 </r>
       <r>    6.1190    1.0000 </r>
       <r>    6.8438    1.0000 </r>
       <r>    7.4069    1.0000 </r>
       <r>    8.4849    0.9585 </r>
       <r>   12.6930    0.0000 </r>
       <r>   15.4556    0.0000 </r>
       <r>   25.4568    0.0000 </r>
       <r>   26.2002    0.0000 </r>
       <r>   35.0875    0.0000 </r>
      </set>
      <set comment="kpoint 81">
       <r>    5.3893    1.0000 </r>
       <r>    6.1190    1.0000 </r>
       <r>    6.8438    1.0000 </r>
       <r>    7.4069    1.0000 </r>
       <r>    8.4849    0.9585 </r>
       <r>   12.6930    0.0000 </r>
       <r>   15.4556    0.0000 </r>
       <r>   25.4568    0.0000 </r>
       <r>   26.2002    0.0000 </r>
       <r>   35.0875    0.0000 </r>
      </set>
      <set comment="kpoint 82">
       <r>    5.3894    1.0000 </r>
       <r>    6.1193    1.0000 </r>
       <r>    6.8431    1.0000 </r>
       <r>    7.4071    1.0000 </r>
       <r>    8.4841    0.9604 </r>
       <r>   12.6870    0.0000 </r>
       <r>   15.4642    0.0000 </r>
       <r>   25.4318    0.0000 </r>
       <r>   26.2271    0.0000 </r>
       <r>   35.0846    0.0000 </r>
      </set>
      <set comment="kpoint 83">
       <r>    5.3897    1.0000 </r>
       <r>    6.1203    1.0000 </r>
       <r>    6.8409    1.0000 </r>
       <r>    7.4077    1.0000 </r>
       <r>    8.4819    0.9655 </r>
       <r>   12.6692    0.0000 </r>
       <r>   15.4900    0.0000 </r>
       <r>   25.3654    0.0000 </r>
       <r>   26.2993    0.0000 </r>
       <r>   35.0759    0.0000 </r>
      </set>
      <set comment="kpoint 84">
       <r>    5.3903    1.0000 </r>
       <r>    6.1218    1.0000 </r>
       <r>    6.8373    1.0000 </r>
       <r>    7.4086    1.0000 </r>
       <r>    8.4782    0.9727 </r>
       <r>   12.6404    0.0000 </r>
       <r>   15.5321    0.0000 </r>
       <r>   25.2734    0.0000 </r>
       <r>   26.4010    0.0000 </r>
       <r>   35.0616    0.0000 </r>
      </set>
      <set comment="kpoint 85">
       <r>    5.3910    1.0000 </r>
       <r>    6.1240    1.0000 </r>
       <r>    6.8322    1.0000 </r>
       <r>    7.4098    1.0000 </r>
       <r>    8.4730    0.9807 </r>
       <r>   12.6014    0.0000 </r>
       <r>   15.5896    0.0000 </r>
       <r>   25.1674    0.0000 </r>
       <r>   26.5204    0.0000 </r>
       <r>   35.0418    0.0000 </r>
      </set>
      <set comment="kpoint 86">
       <r>    5.3920    1.0000 </r>
       <r>    6.1268    1.0000 </r>
       <r>    6.8257    1.0000 </r>
       <r>    7.4114    1.0000 </r>
       <r>    8.4664    0.9879 </r>
       <r>   12.5535    0.0000 </r>
       <r>   15.6612    0.0000 </r>
       <r>   25.0543    0.0000 </r>
       <r>   26.6508    0.0000 </r>
       <r>   35.0166    0.0000 </r>
      </set>
      <set comment="kpoint 87">
       <r>    5.3931    1.0000 </r>
       <r>    6.1302    1.0000 </r>
       <r>    6.8179    1.0000 </r>
       <r>    7.4133    1.0000 </r>
       <r>    8.4584    0.9935 </r>
       <r>   12.4982    0.0000 </r>
       <r>   15.7457    0.0000 </r>
       <r>   24.9376    0.0000 </r>
       <r>   26.7887    0.0000 </r>
       <r>   34.9863    0.0000 </r>
      </set>
      <set comment="kpoint 88">
       <r>    5.3944    1.0000 </r>
       <r>    6.1342    1.0000 </r>
       <r>    6.8087    1.0000 </r>
       <r>    7.4155    1.0000 </r>
       <r>    8.4490    0.9970 </r>
       <r>   12.4366    0.0000 </r>
       <r>   15.8416    0.0000 </r>
       <r>   24.8193    0.0000 </r>
       <r>   26.9319    0.0000 </r>
       <r>   34.9512    0.0000 </r>
      </set>
      <set comment="kpoint 89">
       <r>    5.3958    1.0000 </r>
       <r>    6.1388    1.0000 </r>
       <r>    6.7983    1.0000 </r>
       <r>    7.4179    1.0000 </r>
       <r>    8.4383    0.9989 </r>
       <r>   12.3699    0.0000 </r>
       <r>   15.9477    0.0000 </r>
       <r>   24.7007    0.0000 </r>
       <r>   27.0794    0.0000 </r>
       <r>   34.9117    0.0000 </r>
      </set>
      <set comment="kpoint 90">
       <r>    5.3974    1.0000 </r>
       <r>    6.1440    1.0000 </r>
       <r>    6.7865    1.0000 </r>
       <r>    7.4206    1.0000 </r>
       <r>    8.4263    0.9996 </r>
       <r>   12.2994    0.0000 </r>
       <r>   16.0629    0.0000 </r>
       <r>   24.5823    0.0000 </r>
       <r>   27.2304    0.0000 </r>
       <r>   34.8679    0.0000 </r>
      </set>
      <set comment="kpoint 91">
       <r>    5.3903    1.0000 </r>
       <r>    6.1485    1.0000 </r>
       <r>    6.7317    1.0000 </r>
       <r>    7.3940    1.0000 </r>
       <r>    8.4446    0.9980 </r>
       <r>   12.2178    0.0000 </r>
       <r>   16.1795    0.0000 </r>
       <r>   24.4623    0.0000 </r>
       <r>   27.3561    0.0000 </r>
       <r>   34.8221    0.0000 </r>
      </set>
      <set comment="kpoint 92">
       <r>    5.3908    1.0000 </r>
       <r>    6.1546    1.0000 </r>
       <r>    6.7166    1.0000 </r>
       <r>    7.3962    1.0000 </r>
       <r>    8.4290    0.9995 </r>
       <r>   12.1409    0.0000 </r>
       <r>   16.3094    0.0000 </r>
       <r>   24.3451    0.0000 </r>
       <r>   27.5123    0.0000 </r>
       <r>   34.7715    0.0000 </r>
      </set>
      <set comment="kpoint 93">
       <r>    5.3914    1.0000 </r>
       <r>    6.1613    1.0000 </r>
       <r>    6.7005    1.0000 </r>
       <r>    7.3986    1.0000 </r>
       <r>    8.4122    0.9999 </r>
       <r>   12.0625    0.0000 </r>
       <r>   16.4458    0.0000 </r>
       <r>   24.2292    0.0000 </r>
       <r>   27.6711    0.0000 </r>
       <r>   34.7176    0.0000 </r>
      </set>
      <set comment="kpoint 94">
       <r>    5.3919    1.0000 </r>
       <r>    6.1686    1.0000 </r>
       <r>    6.6834    1.0000 </r>
       <r>    7.4010    1.0000 </r>
       <r>    8.3944    1.0000 </r>
       <r>   11.9832    0.0000 </r>
       <r>   16.5880    0.0000 </r>
       <r>   24.1150    0.0000 </r>
       <r>   27.8321    0.0000 </r>
       <r>   34.6608    0.0000 </r>
      </set>
      <set comment="kpoint 95">
       <r>    5.3924    1.0000 </r>
       <r>    6.1764    1.0000 </r>
       <r>    6.6653    1.0000 </r>
       <r>    7.4035    1.0000 </r>
       <r>    8.3757    1.0000 </r>
       <r>   11.9036    0.0000 </r>
       <r>   16.7354    0.0000 </r>
       <r>   24.0024    0.0000 </r>
       <r>   27.9954    0.0000 </r>
       <r>   34.6014    0.0000 </r>
      </set>
      <set comment="kpoint 96">
       <r>    5.3927    1.0000 </r>
       <r>    6.1848    1.0000 </r>
       <r>    6.6465    1.0000 </r>
       <r>    7.4061    1.0000 </r>
       <r>    8.3561    1.0000 </r>
       <r>   11.8240    0.0000 </r>
       <r>   16.8876    0.0000 </r>
       <r>   23.8915    0.0000 </r>
       <r>   28.1607    0.0000 </r>
       <r>   34.5398    0.0000 </r>
      </set>
      <set comment="kpoint 97">
       <r>    5.3929    1.0000 </r>
       <r>    6.1937    1.0000 </r>
       <r>    6.6268    1.0000 </r>
       <r>    7.4087    1.0000 </r>
       <r>    8.3356    1.0000 </r>
       <r>   11.7449    0.0000 </r>
       <r>   17.0441    0.0000 </r>
       <r>   23.7826    0.0000 </r>
       <r>   28.3280    0.0000 </r>
       <r>   34.4761    0.0000 </r>
      </set>
      <set comment="kpoint 98">
       <r>    5.3928    1.0000 </r>
       <r>    6.2031    1.0000 </r>
       <r>    6.6065    1.0000 </r>
       <r>    7.4113    1.0000 </r>
       <r>    8.3145    1.0000 </r>
       <r>   11.6664    0.0000 </r>
       <r>   17.2045    0.0000 </r>
       <r>   23.6755    0.0000 </r>
       <r>   28.4972    0.0000 </r>
       <r>   34.4107    0.0000 </r>
      </set>
      <set comment="kpoint 99">
       <r>    5.3924    1.0000 </r>
       <r>    6.2130    1.0000 </r>
       <r>    6.5855    1.0000 </r>
       <r>    7.4139    1.0000 </r>
       <r>    8.2928    1.0000 </r>
       <r>   11.5889    0.0000 </r>
       <r>   17.3686    0.0000 </r>
       <r>   23.5705    0.0000 </r>
       <r>   28.6683    0.0000 </r>
       <r>   34.3438    0.0000 </r>
      </set>
      <set comment="kpoint 100">
       <r>    5.3916    1.0000 </r>
       <r>    6.2234    1.0000 </r>
       <r>    6.5641    1.0000 </r>
       <r>    7.4164    1.0000 </r>
       <r>    8.2706    1.0000 </r>
       <r>   11.5124    0.0000 </r>
       <r>   17.5359    0.0000 </r>
       <r>   23.4675    0.0000 </r>
       <r>   28.8411    0.0000 </r>
       <r>   34.2757    0.0000 </r>
      </set>
      <set comment="kpoint 101">
       <r>    5.3902    1.0000 </r>
       <r>    6.2342    1.0000 </r>
       <r>    6.5423    1.0000 </r>
       <r>    7.4190    1.0000 </r>
       <r>    8.2480    1.0000 </r>
       <r>   11.4372    0.0000 </r>
       <r>   17.7063    0.0000 </r>
       <r>   23.3667    0.0000 </r>
       <r>   29.0157    0.0000 </r>
       <r>   34.2065    0.0000 </r>
      </set>
      <set comment="kpoint 102">
       <r>    5.3882    1.0000 </r>
       <r>    6.2454    1.0000 </r>
       <r>    6.5203    1.0000 </r>
       <r>    7.4214    1.0000 </r>
       <r>    8.2251    1.0000 </r>
       <r>   11.3633    0.0000 </r>
       <r>   17.8795    0.0000 </r>
       <r>   23.2680    0.0000 </r>
       <r>   29.1920    0.0000 </r>
       <r>   34.1366    0.0000 </r>
      </set>
      <set comment="kpoint 103">
       <r>    5.3855    1.0000 </r>
       <r>    6.2569    1.0000 </r>
       <r>    6.4981    1.0000 </r>
       <r>    7.4238    1.0000 </r>
       <r>    8.2021    1.0000 </r>
       <r>   11.2908    0.0000 </r>
       <r>   18.0553    0.0000 </r>
       <r>   23.1716    0.0000 </r>
       <r>   29.3699    0.0000 </r>
       <r>   34.0661    0.0000 </r>
      </set>
      <set comment="kpoint 104">
       <r>    5.3554    1.0000 </r>
       <r>    6.2654    1.0000 </r>
       <r>    6.4760    1.0000 </r>
       <r>    7.4199    1.0000 </r>
       <r>    8.1695    1.0000 </r>
       <r>   11.1896    0.0000 </r>
       <r>   18.2259    0.0000 </r>
       <r>   23.0707    0.0000 </r>
       <r>   29.5451    0.0000 </r>
       <r>   33.9843    0.0000 </r>
      </set>
      <set comment="kpoint 105">
       <r>    5.3507    1.0000 </r>
       <r>    6.2780    1.0000 </r>
       <r>    6.4540    1.0000 </r>
       <r>    7.4213    1.0000 </r>
       <r>    8.1465    1.0000 </r>
       <r>   11.1193    0.0000 </r>
       <r>   18.4060    0.0000 </r>
       <r>   22.9793    0.0000 </r>
       <r>   29.7257    0.0000 </r>
       <r>   33.9128    0.0000 </r>
      </set>
      <set comment="kpoint 106">
       <r>    5.3471    1.0000 </r>
       <r>    6.2911    1.0000 </r>
       <r>    6.4334    1.0000 </r>
       <r>    7.4231    1.0000 </r>
       <r>    8.1842    1.0000 </r>
       <r>   11.0600    0.0000 </r>
       <r>   18.5882    0.0000 </r>
       <r>   22.8910    0.0000 </r>
       <r>   29.9090    0.0000 </r>
       <r>   33.8417    0.0000 </r>
      </set>
      <set comment="kpoint 107">
       <r>    5.3402    1.0000 </r>
       <r>    6.3041    1.0000 </r>
       <r>    6.4123    1.0000 </r>
       <r>    7.4239    1.0000 </r>
       <r>    8.1598    1.0000 </r>
       <r>   10.9929    0.0000 </r>
       <r>   18.7718    0.0000 </r>
       <r>   22.8051    0.0000 </r>
       <r>   30.0923    0.0000 </r>
       <r>   33.7705    0.0000 </r>
      </set>
      <set comment="kpoint 108">
       <r>    5.3321    1.0000 </r>
       <r>    6.3171    1.0000 </r>
       <r>    6.3920    1.0000 </r>
       <r>    7.4245    1.0000 </r>
       <r>    8.1359    1.0000 </r>
       <r>   10.9273    0.0000 </r>
       <r>   18.9566    0.0000 </r>
       <r>   22.7221    0.0000 </r>
       <r>   30.2768    0.0000 </r>
       <r>   33.6997    0.0000 </r>
      </set>
      <set comment="kpoint 109">
       <r>    5.3226    1.0000 </r>
       <r>    6.3295    1.0000 </r>
       <r>    6.3735    1.0000 </r>
       <r>    7.4248    1.0000 </r>
       <r>    8.1128    1.0000 </r>
       <r>   10.8631    0.0000 </r>
       <r>   19.1424    0.0000 </r>
       <r>   22.6424    0.0000 </r>
       <r>   30.4624    0.0000 </r>
       <r>   33.6296    0.0000 </r>
      </set>
      <set comment="kpoint 110">
       <r>    5.3115    1.0000 </r>
       <r>    6.3372    1.0000 </r>
       <r>    6.3608    1.0000 </r>
       <r>    7.4248    1.0000 </r>
       <r>    8.0904    1.0000 </r>
       <r>   10.8003    0.0000 </r>
       <r>   19.3288    0.0000 </r>
       <r>   22.5663    0.0000 </r>
       <r>   30.6487    0.0000 </r>
       <r>   33.5603    0.0000 </r>
      </set>
      <set comment="kpoint 111">
       <r>    5.2987    1.0000 </r>
       <r>    6.3289    1.0000 </r>
       <r>    6.3653    1.0000 </r>
       <r>    7.4246    1.0000 </r>
       <r>    8.0689    1.0000 </r>
       <r>   10.7389    0.0000 </r>
       <r>   19.5151    0.0000 </r>
       <r>   22.4942    0.0000 </r>
       <r>   30.8357    0.0000 </r>
       <r>   33.4922    0.0000 </r>
      </set>
      <set comment="kpoint 112">
       <r>    5.2843    1.0000 </r>
       <r>    6.3142    1.0000 </r>
       <r>    6.3777    1.0000 </r>
       <r>    7.4239    1.0000 </r>
       <r>    8.0484    1.0000 </r>
       <r>   10.6788    0.0000 </r>
       <r>   19.7007    0.0000 </r>
       <r>   22.4268    0.0000 </r>
       <r>   31.0229    0.0000 </r>
       <r>   33.4255    0.0000 </r>
      </set>
      <set comment="kpoint 113">
       <r>    5.2680    1.0000 </r>
       <r>    6.2996    1.0000 </r>
       <r>    6.3916    1.0000 </r>
       <r>    7.4230    1.0000 </r>
       <r>    8.0290    1.0000 </r>
       <r>   10.6199    0.0000 </r>
       <r>   19.8847    0.0000 </r>
       <r>   22.3650    0.0000 </r>
       <r>   31.2100    0.0000 </r>
       <r>   33.3609    0.0000 </r>
      </set>
      <set comment="kpoint 114">
       <r>    5.2498    1.0000 </r>
       <r>    6.2861    1.0000 </r>
       <r>    6.4059    1.0000 </r>
       <r>    7.4216    1.0000 </r>
       <r>    8.0109    1.0000 </r>
       <r>   10.5623    0.0000 </r>
       <r>   20.0657    0.0000 </r>
       <r>   22.3100    0.0000 </r>
       <r>   31.3961    0.0000 </r>
       <r>   33.2989    0.0000 </r>
      </set>
      <set comment="kpoint 115">
       <r>    5.2298    1.0000 </r>
       <r>    6.2740    1.0000 </r>
       <r>    6.4204    1.0000 </r>
       <r>    7.4199    1.0000 </r>
       <r>    7.9941    1.0000 </r>
       <r>   10.5059    0.0000 </r>
       <r>   20.2420    0.0000 </r>
       <r>   22.2635    0.0000 </r>
       <r>   31.5805    0.0000 </r>
       <r>   33.2406    0.0000 </r>
      </set>
      <set comment="kpoint 116">
       <r>    5.2079    1.0000 </r>
       <r>    6.2635    1.0000 </r>
       <r>    6.4350    1.0000 </r>
       <r>    7.4176    1.0000 </r>
       <r>    7.9787    1.0000 </r>
       <r>   10.4506    0.0000 </r>
       <r>   20.4111    0.0000 </r>
       <r>   22.2280    0.0000 </r>
       <r>   31.7612    0.0000 </r>
       <r>   33.1876    0.0000 </r>
      </set>
      <set comment="kpoint 117">
       <r>    5.1842    1.0000 </r>
       <r>    6.2547    1.0000 </r>
       <r>    6.4497    1.0000 </r>
       <r>    7.4150    1.0000 </r>
       <r>    7.9649    1.0000 </r>
       <r>   10.3963    0.0000 </r>
       <r>   20.5694    0.0000 </r>
       <r>   22.2069    0.0000 </r>
       <r>   31.9358    0.0000 </r>
       <r>   33.1425    0.0000 </r>
      </set>
      <set comment="kpoint 118">
       <r>    5.1587    1.0000 </r>
       <r>    6.2474    1.0000 </r>
       <r>    6.4644    1.0000 </r>
       <r>    7.4118    1.0000 </r>
       <r>    7.9526    1.0000 </r>
       <r>   10.3431    0.0000 </r>
       <r>   20.7125    0.0000 </r>
       <r>   22.2047    0.0000 </r>
       <r>   32.0992    0.0000 </r>
       <r>   33.1103    0.0000 </r>
      </set>
      <set comment="kpoint 119">
       <r>    5.1315    1.0000 </r>
       <r>    6.2418    1.0000 </r>
       <r>    6.4790    1.0000 </r>
       <r>    7.4081    1.0000 </r>
       <r>    7.9420    1.0000 </r>
       <r>   10.2908    0.0000 </r>
       <r>   20.8348    0.0000 </r>
       <r>   22.2269    0.0000 </r>
       <r>   32.2432    0.0000 </r>
       <r>   33.0990    0.0000 </r>
      </set>
      <set comment="kpoint 120">
       <r>    5.0790    1.0000 </r>
       <r>    6.1722    1.0000 </r>
       <r>    6.4449    1.0000 </r>
       <r>    7.3818    1.0000 </r>
       <r>    7.9070    1.0000 </r>
       <r>   10.1761    0.0000 </r>
       <r>   20.8464    0.0000 </r>
       <r>   22.2451    0.0000 </r>
       <r>   32.3362    0.0000 </r>
       <r>   33.0725    0.0000 </r>
      </set>
     </set>
     <set comment="spin 2">
      <set comment="kpoint 1">
       <r>    0.2685    1.0000 </r>
       <r>    7.2267    1.0000 </r>
       <r>    7.2268    1.0000 </r>
       <r>    7.2272    1.0000 </r>
[...]
        <r>  0.1669  0.0629  0.0897  0.0021  0.0647  0.3779  0.0307  0.0477  0.0145 </r>
       </set>
       <set comment="band 2">
        <r>  0.0001  0.0340  0.0190  0.0180  0.0706  0.0954  0.3134  0.0458  0.3314 </r>
       </set>
       <set comment="band 3">
        <r>  0.0071  0.0027  0.0067  0.0545  0.4357  0.1614  0.0255  0.2129  0.0508 </r>
       </set>
       <set comment="band 4">
        <r>  0.0001  0.0001  0.0091  0.0000  0.0395  0.0000  0.4740  0.0541  0.4049 </r>
       </set>
       <set comment="band 5">
        <r>  0.0000  0.0000  0.0010  0.0008  0.3189  0.0020  0.0506  0.5826  0.0404 </r>
       </set>
       <set comment="band 6">
        <r>  0.1355  0.0701  0.0973  0.0073  0.0004  0.3732  0.0782  0.0002  0.1325 </r>
       </set>
       <set comment="band 7">
        <r>  0.1499  0.0288  0.0147  0.3017  0.1382  0.0260  0.0088  0.1089  0.0180 </r>
       </set>
       <set comment="band 8">
        <r>  0.1859  0.0740  0.0390  0.1623  0.0477  0.0373  0.0375  0.0360  0.0896 </r>
       </set>
       <set comment="band 9">
        <r>  0.0508  0.0556  0.3031  0.0026  0.0003  0.0292  0.2278  0.0013  0.0056 </r>
       </set>
       <set comment="band 10">
        <r>  0.0401  0.2483  0.0081  0.0057  0.0001  0.0636  0.0127  0.0001  0.1089 </r>
       </set>
      </set>
      <set comment="kpoint 108">
       <set comment="band 1">
        <r>  0.1731  0.0670  0.0924  0.0017  0.0549  0.3759  0.0299  0.0416  0.0161 </r>
       </set>
       <set comment="band 2">
        <r>  0.0003  0.0330  0.0197  0.0220  0.1004  0.0860  0.2854  0.0648  0.3164 </r>
       </set>
       <set comment="band 3">
        <r>  0.0064  0.0011  0.0040  0.0499  0.4065  0.1665  0.0409  0.2106  0.0736 </r>
       </set>
       <set comment="band 4">
        <r>  0.0001  0.0002  0.0087  0.0000  0.0360  0.0000  0.4933  0.0467  0.3966 </r>
       </set>
       <set comment="band 5">
        <r>  0.0000  0.0000  0.0008  0.0007  0.3333  0.0015  0.0460  0.5795  0.0345 </r>
       </set>
       <set comment="band 6">
        <r>  0.1352  0.0686  0.0931  0.0060  0.0003  0.3800  0.0770  0.0001  0.1375 </r>
       </set>
       <set comment="band 7">
        <r>  0.1401  0.0280  0.0152  0.3101  0.1384  0.0246  0.0085  0.1114  0.0177 </r>
       </set>
       <set comment="band 8">
        <r>  0.1920  0.0746  0.0417  0.1547  0.0461  0.0391  0.0367  0.0357  0.0888 </r>
       </set>
       <set comment="band 9">
        <r>  0.0479  0.0572  0.3035  0.0022  0.0002  0.0280  0.2307  0.0011  0.0060 </r>
       </set>
       <set comment="band 10">
        <r>  0.0421  0.2460  0.0068  0.0049  0.0001  0.0631  0.0127  0.0001  0.1123 </r>
       </set>
      </set>
      <set comment="kpoint 109">
       <set comment="band 1">
        <r>  0.1795  0.0711  0.0950  0.0014  0.0457  0.3734  0.0288  0.0357  0.0177 </r>
       </set>
       <set comment="band 2">
        <r>  0.0005  0.0314  0.0203  0.0290  0.1517  0.0684  0.2452  0.0982  0.2835 </r>
       </set>
       <set comment="band 3">
        <r>  0.0055  0.0000  0.0015  0.0423  0.3549  0.1806  0.0685  0.1940  0.1144 </r>
       </set>
       <set comment="band 4">
        <r>  0.0001  0.0003  0.0083  0.0000  0.0323  0.0000  0.5132  0.0395  0.3879 </r>
       </set>
       <set comment="band 5">
        <r>  0.0000  0.0000  0.0007  0.0006  0.3481  0.0010  0.0411  0.5759  0.0288 </r>
       </set>
       <set comment="band 6">
        <r>  0.1347  0.0671  0.0890  0.0049  0.0002  0.3865  0.0759  0.0001  0.1426 </r>
       </set>
       <set comment="band 7">
        <r>  0.1300  0.0270  0.0156  0.3190  0.1390  0.0232  0.0081  0.1142  0.0172 </r>
       </set>
       <set comment="band 8">
        <r>  0.1986  0.0754  0.0446  0.1463  0.0442  0.0410  0.0360  0.0351  0.0882 </r>
       </set>
       <set comment="band 9">
        <r>  0.0449  0.0591  0.3039  0.0018  0.0002  0.0268  0.2336  0.0008  0.0066 </r>
       </set>
       <set comment="band 10">
        <r>  0.0440  0.2435  0.0055  0.0043  0.0000  0.0623  0.0126  0.0001  0.1152 </r>
       </set>
      </set>
      <set comment="kpoint 110">
       <set comment="band 1">
        <r>  0.1861  0.0751  0.0974  0.0010  0.0373  0.3701  0.0276  0.0299  0.0194 </r>
       </set>
       <set comment="band 2">
        <r>  0.0011  0.0281  0.0200  0.0402  0.2375  0.0413  0.1850  0.1557  0.2206 </r>
       </set>
       <set comment="band 3">
        <r>  0.0043  0.0008  0.0000  0.0304  0.2678  0.2050  0.1160  0.1532  0.1853 </r>
       </set>
       <set comment="band 4">
        <r>  0.0001  0.0004  0.0079  0.0000  0.0284  0.0000  0.5335  0.0327  0.3787 </r>
       </set>
       <set comment="band 5">
        <r>  0.0000  0.0000  0.0006  0.0005  0.3632  0.0007  0.0359  0.5719  0.0235 </r>
       </set>
       <set comment="band 6">
        <r>  0.1339  0.0657  0.0850  0.0040  0.0002  0.3928  0.0748  0.0000  0.1477 </r>
       </set>
       <set comment="band 7">
        <r>  0.1195  0.0258  0.0157  0.3287  0.1399  0.0217  0.0076  0.1174  0.0166 </r>
       </set>
       <set comment="band 8">
        <r>  0.2057  0.0764  0.0477  0.1370  0.0419  0.0432  0.0353  0.0341  0.0878 </r>
       </set>
       <set comment="band 9">
        <r>  0.0419  0.0614  0.3042  0.0015  0.0002  0.0254  0.2367  0.0006  0.0073 </r>
       </set>
       <set comment="band 10">
        <r>  0.0461  0.2406  0.0043  0.0036  0.0000  0.0617  0.0123  0.0000  0.1180 </r>
       </set>
      </set>
      <set comment="kpoint 111">
       <set comment="band 1">
        <r>  0.1928  0.0790  0.0996  0.0008  0.0297  0.3662  0.0262  0.0245  0.0210 </r>
       </set>
       <set comment="band 2">
        <r>  0.0018  0.0219  0.0173  0.0536  0.3470  0.0142  0.1110  0.2331  0.1337 </r>
       </set>
       <set comment="band 3">
        <r>  0.0029  0.0045  0.0010  0.0163  0.1562  0.2302  0.1774  0.0923  0.2804 </r>
       </set>
       <set comment="band 4">
        <r>  0.0001  0.0005  0.0075  0.0000  0.0243  0.0000  0.5542  0.0262  0.3688 </r>
       </set>
       <set comment="band 5">
        <r>  0.0000  0.0000  0.0004  0.0004  0.3785  0.0004  0.0304  0.5674  0.0185 </r>
       </set>
       <set comment="band 6">
        <r>  0.1328  0.0643  0.0813  0.0031  0.0001  0.3987  0.0738  0.0000  0.1529 </r>
       </set>
       <set comment="band 7">
        <r>  0.1085  0.0243  0.0155  0.3392  0.1413  0.0201  0.0071  0.1210  0.0158 </r>
       </set>
       <set comment="band 8">
        <r>  0.2134  0.0776  0.0510  0.1266  0.0393  0.0455  0.0347  0.0327  0.0876 </r>
       </set>
       <set comment="band 9">
        <r>  0.0388  0.0642  0.3046  0.0012  0.0001  0.0240  0.2399  0.0005  0.0081 </r>
       </set>
       <set comment="band 10">
        <r>  0.0482  0.2372  0.0031  0.0031  0.0000  0.0611  0.0117  0.0000  0.1203 </r>
       </set>
      </set>
      <set comment="kpoint 112">
       <set comment="band 1">
        <r>  0.1995  0.0827  0.1014  0.0006  0.0230  0.3616  0.0247  0.0195  0.0226 </r>
       </set>
       <set comment="band 2">
        <r>  0.0022  0.0148  0.0128  0.0626  0.4295  0.0017  0.0534  0.2992  0.0633 </r>
       </set>
       <set comment="band 3">
        <r>  0.0017  0.0092  0.0040  0.0064  0.0705  0.2416  0.2223  0.0424  0.3592 </r>
       </set>
       <set comment="band 4">
        <r>  0.0001  0.0007  0.0070  0.0000  0.0201  0.0000  0.5751  0.0202  0.3584 </r>
       </set>
       <set comment="band 5">
        <r>  0.0000  0.0000  0.0003  0.0003  0.3940  0.0003  0.0249  0.5622  0.0141 </r>
       </set>
       <set comment="band 6">
        <r>  0.1315  0.0629  0.0776  0.0024  0.0001  0.4043  0.0728  0.0000  0.1580 </r>
       </set>
       <set comment="band 7">
        <r>  0.0968  0.0224  0.0150  0.3508  0.1431  0.0182  0.0064  0.1251  0.0147 </r>
       </set>
       <set comment="band 8">
        <r>  0.2218  0.0790  0.0547  0.1150  0.0362  0.0481  0.0343  0.0308  0.0876 </r>
       </set>
       <set comment="band 9">
        <r>  0.0355  0.0677  0.3048  0.0009  0.0001  0.0223  0.2432  0.0003  0.0093 </r>
       </set>
       <set comment="band 10">
        <r>  0.0504  0.2332  0.0019  0.0025  0.0000  0.0605  0.0109  0.0000  0.1223 </r>
       </set>
      </set>
      <set comment="kpoint 113">
       <set comment="band 1">
        <r>  0.2063  0.0863  0.1030  0.0004  0.0171  0.3563  0.0230  0.0150  0.0242 </r>
       </set>
       <set comment="band 2">
        <r>  0.0022  0.0094  0.0087  0.0661  0.4678  0.0001  0.0234  0.3407  0.0265 </r>
       </set>
       <set comment="band 3">
        <r>  0.0011  0.0125  0.0068  0.0021  0.0279  0.2430  0.2396  0.0168  0.4045 </r>
       </set>
       <set comment="band 4">
        <r>  0.0001  0.0009  0.0065  0.0000  0.0159  0.0001  0.5960  0.0148  0.3473 </r>
       </set>
       <set comment="band 5">
        <r>  0.0000  0.0000  0.0002  0.0002  0.4095  0.0002  0.0195  0.5563  0.0102 </r>
       </set>
       <set comment="band 6">
        <r>  0.1300  0.0616  0.0742  0.0018  0.0001  0.4097  0.0719  0.0000  0.1632 </r>
       </set>
       <set comment="band 7">
        <r>  0.0844  0.0202  0.0141  0.3636  0.1456  0.0162  0.0057  0.1298  0.0133 </r>
       </set>
       <set comment="band 8">
        <r>  0.2312  0.0808  0.0587  0.1019  0.0325  0.0509  0.0339  0.0283  0.0880 </r>
       </set>
       <set comment="band 9">
        <r>  0.0321  0.0722  0.3050  0.0007  0.0001  0.0205  0.2469  0.0002  0.0108 </r>
       </set>
       <set comment="band 10">
        <r>  0.0529  0.2282  0.0009  0.0020  0.0000  0.0601  0.0097  0.0000  0.1238 </r>
       </set>
      </set>
      <set comment="kpoint 114">
       <set comment="band 1">
        <r>  0.2131  0.0897  0.1042  0.0003  0.0122  0.3503  0.0213  0.0110  0.0257 </r>
       </set>
       <set comment="band 2">
        <r>  0.0018  0.0057  0.0056  0.0667  0.4803  0.0012  0.0099  0.3670  0.0103 </r>
       </set>
       <set comment="band 3">
        <r>  0.0007  0.0141  0.0087  0.0006  0.0101  0.2424  0.2404  0.0059  0.4294 </r>
       </set>
       <set comment="band 4">
        <r>  0.0001  0.0011  0.0060  0.0000  0.0120  0.0001  0.6167  0.0101  0.3355 </r>
       </set>
       <set comment="band 5">
        <r>  0.0000  0.0000  0.0001  0.0001  0.4249  0.0001  0.0144  0.5497  0.0069 </r>
       </set>
       <set comment="band 6">
        <r>  0.1283  0.0604  0.0708  0.0013  0.0000  0.4148  0.0710  0.0000  0.1684 </r>
       </set>
       <set comment="band 7">
        <r>  0.0711  0.0176  0.0128  0.3780  0.1488  0.0139  0.0049  0.1353  0.0116 </r>
       </set>
       <set comment="band 8">
        <r>  0.2414  0.0829  0.0632  0.0871  0.0282  0.0541  0.0336  0.0250  0.0886 </r>
       </set>
       <set comment="band 9">
        <r>  0.0284  0.0782  0.3048  0.0005  0.0000  0.0184  0.2507  0.0001  0.0128 </r>
       </set>
       <set comment="band 10">
        <r>  0.0556  0.2218  0.0002  0.0016  0.0000  0.0598  0.0081  0.0000  0.1246 </r>
       </set>
      </set>
      <set comment="kpoint 115">
       <set comment="band 1">
        <r>  0.2198  0.0928  0.1052  0.0002  0.0082  0.3437  0.0195  0.0076  0.0272 </r>
       </set>
       <set comment="band 2">
        <r>  0.0014  0.0033  0.0034  0.0663  0.4811  0.0021  0.0039  0.3863  0.0033 </r>
       </set>
       <set comment="band 3">
        <r>  0.0005  0.0147  0.0101  0.0001  0.0031  0.2429  0.2336  0.0016  0.4451 </r>
       </set>
       <set comment="band 4">
        <r>  0.0001  0.0013  0.0054  0.0000  0.0083  0.0001  0.6371  0.0062  0.3229 </r>
       </set>
       <set comment="band 5">
        <r>  0.0000  0.0000  0.0001  0.0001  0.4401  0.0000  0.0097  0.5421  0.0042 </r>
       </set>
       <set comment="band 6">
        <r>  0.1264  0.0592  0.0677  0.0009  0.0000  0.4197  0.0702  0.0000  0.1736 </r>
       </set>
       <set comment="band 7">
        <r>  0.0568  0.0145  0.0110  0.3940  0.1526  0.0114  0.0040  0.1415  0.0096 </r>
       </set>
       <set comment="band 8">
        <r>  0.2527  0.0854  0.0682  0.0706  0.0232  0.0576  0.0334  0.0210  0.0897 </r>
       </set>
       <set comment="band 9">
        <r>  0.0243  0.0862  0.3041  0.0003  0.0000  0.0159  0.2549  0.0001  0.0156 </r>
       </set>
       <set comment="band 10">
        <r>  0.0586  0.2134  0.0000  0.0012  0.0000  0.0598  0.0060  0.0000  0.1245 </r>
       </set>
      </set>
      <set comment="kpoint 116">
       <set comment="band 1">
        <r>  0.2265  0.0958  0.1058  0.0001  0.0051  0.3365  0.0178  0.0048  0.0286 </r>
       </set>
       <set comment="band 2">
        <r>  0.0010  0.0018  0.0019  0.0654  0.4764  0.0025  0.0013  0.4022  0.0007 </r>
       </set>
       <set comment="band 3">
        <r>  0.0004  0.0147  0.0109  0.0000  0.0006  0.2447  0.2234  0.0002  0.4568 </r>
       </set>
       <set comment="band 4">
        <r>  0.0001  0.0016  0.0049  0.0000  0.0051  0.0001  0.6568  0.0032  0.3096 </r>
       </set>
       <set comment="band 5">
        <r>  0.0000  0.0000  0.0000  0.0000  0.4548  0.0000  0.0056  0.5336  0.0021 </r>
       </set>
       <set comment="band 6">
        <r>  0.1244  0.0580  0.0646  0.0006  0.0000  0.4242  0.0695  0.0000  0.1788 </r>
       </set>
       <set comment="band 7">
        <r>  0.0418  0.0110  0.0086  0.4113  0.1572  0.0085  0.0030  0.1485  0.0072 </r>
       </set>
       <set comment="band 8">
        <r>  0.2648  0.0883  0.0737  0.0526  0.0176  0.0615  0.0334  0.0162  0.0910 </r>
       </set>
       <set comment="band 9">
        <r>  0.0197  0.0975  0.3023  0.0002  0.0000  0.0131  0.2593  0.0000  0.0198 </r>
       </set>
       <set comment="band 10">
        <r>  0.0622  0.2018  0.0011  0.0008  0.0000  0.0601  0.0035  0.0000  0.1228 </r>
       </set>
      </set>
      <set comment="kpoint 117">
       <set comment="band 1">
        <r>  0.2330  0.0984  0.1060  0.0000  0.0027  0.3289  0.0160  0.0027  0.0299 </r>
       </set>
       <set comment="band 2">
        <r>  0.0006  0.0008  0.0009  0.0644  0.4687  0.0024  0.0003  0.4161  0.0000 </r>
       </set>
       <set comment="band 3">
        <r>  0.0003  0.0143  0.0115  0.0000  0.0000  0.2477  0.2115  0.0001  0.4665 </r>
       </set>
       <set comment="band 4">
        <r>  0.0000  0.0019  0.0043  0.0000  0.0026  0.0001  0.6756  0.0011  0.2956 </r>
       </set>
       <set comment="band 5">
        <r>  0.0000  0.0000  0.0000  0.0000  0.4689  0.0000  0.0025  0.5240  0.0008 </r>
       </set>
       <set comment="band 6">
        <r>  0.1223  0.0569  0.0617  0.0004  0.0000  0.4286  0.0688  0.0000  0.1839 </r>
       </set>
       <set comment="band 7">
        <r>  0.0267  0.0073  0.0059  0.4292  0.1622  0.0056  0.0019  0.1561  0.0047 </r>
       </set>
       <set comment="band 8">
        <r>  0.2770  0.0913  0.0796  0.0338  0.0116  0.0655  0.0333  0.0108  0.0926 </r>
       </set>
       <set comment="band 9">
        <r>  0.0144  0.1140  0.2979  0.0001  0.0000  0.0097  0.2636  0.0000  0.0264 </r>
       </set>
       <set comment="band 10">
        <r>  0.0663  0.1850  0.0047  0.0006  0.0000  0.0609  0.0011  0.0000  0.1186 </r>
       </set>
      </set>
      <set comment="kpoint 118">
       <set comment="band 1">
        <r>  0.2394  0.1009  0.1059  0.0000  0.0012  0.3208  0.0142  0.0012  0.0311 </r>
       </set>
       <set comment="band 2">
        <r>  0.0003  0.0002  0.0003  0.0634  0.4594  0.0021  0.0000  0.4288  0.0005 </r>
       </set>
       <set comment="band 3">
        <r>  0.0003  0.0137  0.0119  0.0001  0.0004  0.2514  0.1988  0.0006  0.4752 </r>
       </set>
       <set comment="band 4">
        <r>  0.0000  0.0022  0.0038  0.0000  0.0008  0.0001  0.6932  0.0001  0.2810 </r>
       </set>
       <set comment="band 5">
        <r>  0.0000  0.0000  0.0000  0.0000  0.4823  0.0000  0.0006  0.5134  0.0001 </r>
       </set>
       <set comment="band 6">
        <r>  0.1200  0.0558  0.0590  0.0002  0.0000  0.4327  0.0681  0.0000  0.1891 </r>
       </set>
       <set comment="band 7">
        <r>  0.0130  0.0037  0.0030  0.4456  0.1670  0.0027  0.0009  0.1636  0.0022 </r>
       </set>
       <set comment="band 8">
        <r>  0.2879  0.0941  0.0856  0.0164  0.0059  0.0695  0.0332  0.0055  0.0941 </r>
       </set>
       <set comment="band 9">
        <r>  0.0086  0.1387  0.2880  0.0000  0.0000  0.0058  0.2662  0.0000  0.0370 </r>
       </set>
       <set comment="band 10">
        <r>  0.0711  0.1600  0.0138  0.0003  0.0000  0.0621  0.0001  0.0000  0.1102 </r>
       </set>
      </set>
      <set comment="kpoint 119">
       <set comment="band 1">
        <r>  0.2457  0.1030  0.1055  0.0000  0.0003  0.3125  0.0126  0.0003  0.0323 </r>
       </set>
       <set comment="band 2">
        <r>  0.0001  0.0000  0.0000  0.0623  0.4488  0.0017  0.0001  0.4405  0.0017 </r>
       </set>
       <set comment="band 3">
        <r>  0.0003  0.0130  0.0122  0.0002  0.0012  0.2558  0.1857  0.0016  0.4834 </r>
       </set>
       <set comment="band 4">
        <r>  0.0000  0.0026  0.0033  0.0000  0.0001  0.0000  0.7094  0.0002  0.2656 </r>
       </set>
       <set comment="band 5">
        <r>  0.0000  0.0000  0.0000  0.0000  0.4947  0.0000  0.0000  0.5016  0.0001 </r>
       </set>
       <set comment="band 6">
        <r>  0.1176  0.0547  0.0564  0.0001  0.0000  0.4365  0.0675  0.0000  0.1942 </r>
       </set>
       <set comment="band 7">
        <r>  0.0032  0.0010  0.0008  0.4571  0.1703  0.0006  0.0002  0.1699  0.0005 </r>
       </set>
       <set comment="band 8">
        <r>  0.2949  0.0960  0.0911  0.0038  0.0015  0.0727  0.0329  0.0014  0.0949 </r>
       </set>
       <set comment="band 9">
        <r>  0.0029  0.1754  0.2665  0.0000  0.0000  0.0020  0.2629  0.0000  0.0547 </r>
       </set>
       <set comment="band 10">
        <r>  0.0757  0.1230  0.0347  0.0002  0.0000  0.0632  0.0048  0.0000  0.0946 </r>
       </set>
      </set>
      <set comment="kpoint 120">
       <set comment="band 1">
        <r>  0.2484  0.1016  0.1016  0.0000  0.0000  0.3077  0.0110  0.0000  0.0330 </r>
       </set>
       <set comment="band 2">
        <r>  0.0000  0.0000  0.0000  0.0626  0.4448  0.0000  0.0000  0.4448  0.0000 </r>
       </set>
       <set comment="band 3">
        <r>  0.0001  0.0131  0.0131  0.0000  0.0000  0.2573  0.1669  0.0000  0.5008 </r>
       </set>
       <set comment="band 4">
        <r>  0.0000  0.0026  0.0026  0.0000  0.0000  0.0000  0.7306  0.0000  0.2435 </r>
       </set>
       <set comment="band 5">
        <r>  0.0000  0.0000  0.0000  0.0000  0.4975  0.0000  0.0000  0.4975  0.0000 </r>
       </set>
       <set comment="band 6">
        <r>  0.1178  0.0570  0.0570  0.0000  0.0000  0.4378  0.0658  0.0000  0.1974 </r>
       </set>
       <set comment="band 7">
        <r>  0.0000  0.0000  0.0000  0.4520  0.1780  0.0000  0.0000  0.1780  0.0000 </r>
       </set>
       <set comment="band 8">
        <r>  0.2958  0.0934  0.0934  0.0000  0.0000  0.0769  0.0326  0.0000  0.0977 </r>
       </set>
       <set comment="band 9">
        <r>  0.0000  0.2248  0.2248  0.0000  0.0000  0.0000  0.2487  0.0000  0.0829 </r>
       </set>
       <set comment="band 10">
        <r>  0.0794  0.0772  0.0772  0.0000  0.0000  0.0667  0.0242  0.0000  0.0726 </r>
       </set>
      </set>
     </set>
    </set>
   </array>
  </projected>
 </calculation>
 <structure name="finalpos" >
  <crystal>
   <varray name="basis" >
    <v>       1.76142189       1.76142189       0.00000000 </v>
    <v>       0.00000000       1.76142189       1.76142189 </v>
    <v>       1.76142189       0.00000000       1.76142189 </v>
   </varray>
   <i name="volume">     10.93000000 </i>
   <varray name="rec_basis" >
    <v>       0.28386158       0.28386158      -0.28386158 </v>
    <v>      -0.28386158       0.28386158       0.28386158 </v>
    <v>       0.28386158      -0.28386158       0.28386158 </v>
   </varray>
  </crystal>
  <varray name="positions" >
   <v>       0.00000000       0.00000000       0.00000000 </v>
  </varray>
 </structure>
</modeling>
