
     Program PWSCF v.6.7MaX starts on 14Jun2021 at 13:17:15 

     This program is part of the open-source Quantum ESPRESSO suite
     for quantum simulation of materials; please cite
         "P. Giannozzi et al., J. Phys.:Condens. Matter 21 395502 (2009);
         "P. Giannozzi et al., J. Phys.:Condens. Matter 29 465901 (2017);
          URL http://www.quantum-espresso.org", 
     in publications or presentations arising from this work. More details at
     http://www.quantum-espresso.org/quote

     Parallel version (MPI), running on     2 processors

     MPI processes distributed on     1 nodes
     R & G space division:  proc/nbgrp/npool/nimage =       2
     Waiting for input...
     Reading input from standard input
     Message from routine read_cards :
     DEPRECATED: no units specified in ATOMIC_POSITIONS card
     Message from routine read_cards :
     ATOMIC_POSITIONS: units set to alat

     Current dimensions of program PWSCF are:
     Max number of different atomic species (ntypx) = 10
     Max number of k-points (npk) =  40000
     Max angular momentum in pseudopotentials (lmaxx) =  3

     Atomic positions and unit cell read from directory:
     /burg/home/hqp2000/mcu/data/QE/si_band_dos/tmp/si.save/
 
     file Si.pbe-n-kjpaw_psl.1.0.0.UPF: wavefunction(s)  3S 3P renormalized

     Subspace diagonalization in iterative solution of the eigenvalue problem:
     a serial algorithm will be used

 
     Parallelization info
     --------------------
     sticks:   dense  smooth     PW     G-vecs:    dense   smooth      PW
     Min         126     126     42                 1365     1365     264
     Max         127     127     43                 1368     1368     267
     Sum         253     253     85                 2733     2733     531
 


     bravais-lattice index     =            2
     lattice parameter (alat)  =      10.2000  a.u.
     unit-cell volume          =     265.3020 (a.u.)^3
     number of atoms/cell      =            2
     number of atomic types    =            1
     number of electrons       =         8.00
     number of Kohn-Sham states=           16
     kinetic-energy cutoff     =      18.0000  Ry
     charge density cutoff     =      72.0000  Ry
     Exchange-correlation= SLA  PW   PBX  PBC
                           (   1   4   3   4   0   0   0)

     celldm(1)=  10.200000  celldm(2)=   0.000000  celldm(3)=   0.000000
     celldm(4)=   0.000000  celldm(5)=   0.000000  celldm(6)=   0.000000

     crystal axes: (cart. coord. in units of alat)
               a(1) = (  -0.500000   0.000000   0.500000 )  
               a(2) = (   0.000000   0.500000   0.500000 )  
               a(3) = (  -0.500000   0.500000   0.000000 )  

     reciprocal axes: (cart. coord. in units 2 pi/alat)
               b(1) = ( -1.000000 -1.000000  1.000000 )  
               b(2) = (  1.000000  1.000000  1.000000 )  
               b(3) = ( -1.000000  1.000000 -1.000000 )  


     PseudoPot. # 1 for Si read from file:
     /burg/home/hqp2000/mcu/data/QE/si_band_dos/Si.pbe-n-kjpaw_psl.1.0.0.UPF
     MD5 check sum: c39c59da582df4a0d9f10159256ea34e
     Pseudo is Projector augmented-wave + core cor, Zval =  4.0
     Generated using &quot;atomic&quot; code by A. Dal Corso  v.6.3
     Shape of augmentation charge: PSQ
     Using radial grid of 1141 points,  6 beta functions with: 
                l(1) =   0
                l(2) =   0
                l(3) =   1
                l(4) =   1
                l(5) =   2
                l(6) =   2
     Q(r) pseudized with 0 coefficients 


     atomic species   valence    mass     pseudopotential
        Si             4.00    28.08600     Si( 1.00)

     48 Sym. Ops., with inversion, found (24 have fractional translation)


                                    s                        frac. trans.

      isym =  1     identity                                     

 cryst.   s( 1) = (     1          0          0      )
                  (     0          1          0      )
                  (     0          0          1      )

 cart.    s( 1) = (  1.0000000  0.0000000  0.0000000 )
                  (  0.0000000  1.0000000  0.0000000 )
                  (  0.0000000  0.0000000  1.0000000 )


      isym =  2     180 deg rotation - cart. axis [0,0,1]        

 cryst.   s( 2) = (     0          1         -1      )
                  (     1          0         -1      )
                  (     0          0         -1      )

 cart.    s( 2) = ( -1.0000000  0.0000000  0.0000000 )
                  (  0.0000000 -1.0000000  0.0000000 )
                  (  0.0000000  0.0000000  1.0000000 )


      isym =  3     180 deg rotation - cart. axis [0,1,0]        

 cryst.   s( 3) = (    -1          0          0      )
                  (    -1          0          1      )
                  (    -1          1          0      )

 cart.    s( 3) = ( -1.0000000  0.0000000  0.0000000 )
                  (  0.0000000  1.0000000  0.0000000 )
                  (  0.0000000  0.0000000 -1.0000000 )


      isym =  4     180 deg rotation - cart. axis [1,0,0]        

 cryst.   s( 4) = (     0         -1          1      )
                  (     0         -1          0      )
                  (     1         -1          0      )

 cart.    s( 4) = (  1.0000000  0.0000000  0.0000000 )
                  (  0.0000000 -1.0000000  0.0000000 )
                  (  0.0000000  0.0000000 -1.0000000 )


      isym =  5     180 deg rotation - cart. axis [1,1,0]        

 cryst.   s( 5) = (     0         -1          0      )    f =(  0.2500000 )
                  (    -1          0          0      )       (  0.2500000 )
                  (     0          0         -1      )       (  0.2500000 )

 cart.    s( 5) = (  0.0000000  1.0000000  0.0000000 )    f =( -0.2500000 )
                  (  1.0000000  0.0000000  0.0000000 )       (  0.2500000 )
                  (  0.0000000  0.0000000 -1.0000000 )       (  0.2500000 )


      isym =  6     180 deg rotation - cart. axis [1,-1,0]       

 cryst.   s( 6) = (    -1          0          1      )    f =(  0.2500000 )
                  (     0         -1          1      )       (  0.2500000 )
                  (     0          0          1      )       (  0.2500000 )

 cart.    s( 6) = (  0.0000000 -1.0000000  0.0000000 )    f =( -0.2500000 )
                  ( -1.0000000  0.0000000  0.0000000 )       (  0.2500000 )
                  (  0.0000000  0.0000000 -1.0000000 )       (  0.2500000 )


      isym =  7      90 deg rotation - cart. axis [0,0,-1]       

 cryst.   s( 7) = (     0          1          0      )    f =(  0.2500000 )
                  (     0          1         -1      )       (  0.2500000 )
                  (    -1          1          0      )       (  0.2500000 )

 cart.    s( 7) = (  0.0000000  1.0000000  0.0000000 )    f =( -0.2500000 )
                  ( -1.0000000  0.0000000  0.0000000 )       (  0.2500000 )
                  (  0.0000000  0.0000000  1.0000000 )       (  0.2500000 )


      isym =  8      90 deg rotation - cart. axis [0,0,1]        

 cryst.   s( 8) = (     1          0         -1      )    f =(  0.2500000 )
                  (     1          0          0      )       (  0.2500000 )
                  (     1         -1          0      )       (  0.2500000 )

 cart.    s( 8) = (  0.0000000 -1.0000000  0.0000000 )    f =( -0.2500000 )
                  (  1.0000000  0.0000000  0.0000000 )       (  0.2500000 )
                  (  0.0000000  0.0000000  1.0000000 )       (  0.2500000 )


      isym =  9     180 deg rotation - cart. axis [1,0,1]        

 cryst.   s( 9) = (    -1          0          0      )    f =(  0.2500000 )
                  (     0          0         -1      )       (  0.2500000 )
                  (     0         -1          0      )       (  0.2500000 )

 cart.    s( 9) = (  0.0000000  0.0000000  1.0000000 )    f =( -0.2500000 )
                  (  0.0000000 -1.0000000  0.0000000 )       (  0.2500000 )
                  (  1.0000000  0.0000000  0.0000000 )       (  0.2500000 )


      isym = 10     180 deg rotation - cart. axis [-1,0,1]       

 cryst.   s(10) = (     1          0          0      )    f =(  0.2500000 )
                  (     1         -1          0      )       (  0.2500000 )
                  (     1          0         -1      )       (  0.2500000 )

 cart.    s(10) = (  0.0000000  0.0000000 -1.0000000 )    f =( -0.2500000 )
                  (  0.0000000 -1.0000000  0.0000000 )       (  0.2500000 )
                  ( -1.0000000  0.0000000  0.0000000 )       (  0.2500000 )


      isym = 11      90 deg rotation - cart. axis [0,1,0]        

 cryst.   s(11) = (     0          1         -1      )    f =(  0.2500000 )
                  (    -1          1          0      )       (  0.2500000 )
                  (     0          1          0      )       (  0.2500000 )

 cart.    s(11) = (  0.0000000  0.0000000  1.0000000 )    f =( -0.2500000 )
                  (  0.0000000  1.0000000  0.0000000 )       (  0.2500000 )
                  ( -1.0000000  0.0000000  0.0000000 )       (  0.2500000 )


      isym = 12      90 deg rotation - cart. axis [0,-1,0]       

 cryst.   s(12) = (     0         -1          1      )    f =(  0.2500000 )
                  (     0          0          1      )       (  0.2500000 )
                  (    -1          0          1      )       (  0.2500000 )

 cart.    s(12) = (  0.0000000  0.0000000 -1.0000000 )    f =( -0.2500000 )
                  (  0.0000000  1.0000000  0.0000000 )       (  0.2500000 )
                  (  1.0000000  0.0000000  0.0000000 )       (  0.2500000 )


      isym = 13     180 deg rotation - cart. axis [0,1,1]        

 cryst.   s(13) = (    -1          1          0      )    f =(  0.2500000 )
                  (     0          1          0      )       (  0.2500000 )
                  (     0          1         -1      )       (  0.2500000 )

 cart.    s(13) = ( -1.0000000  0.0000000  0.0000000 )    f =( -0.2500000 )
                  (  0.0000000  0.0000000  1.0000000 )       (  0.2500000 )
                  (  0.0000000  1.0000000  0.0000000 )       (  0.2500000 )


      isym = 14     180 deg rotation - cart. axis [0,1,-1]       

 cryst.   s(14) = (     0          0         -1      )    f =(  0.2500000 )
                  (     0         -1          0      )       (  0.2500000 )
                  (    -1          0          0      )       (  0.2500000 )

 cart.    s(14) = ( -1.0000000  0.0000000  0.0000000 )    f =( -0.2500000 )
                  (  0.0000000  0.0000000 -1.0000000 )       (  0.2500000 )
                  (  0.0000000 -1.0000000  0.0000000 )       (  0.2500000 )


      isym = 15      90 deg rotation - cart. axis [-1,0,0]       

 cryst.   s(15) = (     0          0          1      )    f =(  0.2500000 )
                  (    -1          0          1      )       (  0.2500000 )
                  (     0         -1          1      )       (  0.2500000 )

 cart.    s(15) = (  1.0000000  0.0000000  0.0000000 )    f =( -0.2500000 )
                  (  0.0000000  0.0000000  1.0000000 )       (  0.2500000 )
                  (  0.0000000 -1.0000000  0.0000000 )       (  0.2500000 )


      isym = 16      90 deg rotation - cart. axis [1,0,0]        

 cryst.   s(16) = (     1         -1          0      )    f =(  0.2500000 )
                  (     1          0         -1      )       (  0.2500000 )
                  (     1          0          0      )       (  0.2500000 )

 cart.    s(16) = (  1.0000000  0.0000000  0.0000000 )    f =( -0.2500000 )
                  (  0.0000000  0.0000000 -1.0000000 )       (  0.2500000 )
                  (  0.0000000  1.0000000  0.0000000 )       (  0.2500000 )


      isym = 17     120 deg rotation - cart. axis [-1,-1,-1]     

 cryst.   s(17) = (    -1          0          1      )
                  (    -1          1          0      )
                  (    -1          0          0      )

 cart.    s(17) = (  0.0000000  1.0000000  0.0000000 )
                  (  0.0000000  0.0000000  1.0000000 )
                  (  1.0000000  0.0000000  0.0000000 )


      isym = 18     120 deg rotation - cart. axis [-1,1,1]       

 cryst.   s(18) = (     0          1          0      )
                  (     0          0          1      )
                  (     1          0          0      )

 cart.    s(18) = (  0.0000000 -1.0000000  0.0000000 )
                  (  0.0000000  0.0000000  1.0000000 )
                  ( -1.0000000  0.0000000  0.0000000 )


      isym = 19     120 deg rotation - cart. axis [1,1,-1]       

 cryst.   s(19) = (     1          0         -1      )
                  (     0          0         -1      )
                  (     0          1         -1      )

 cart.    s(19) = (  0.0000000  1.0000000  0.0000000 )
                  (  0.0000000  0.0000000 -1.0000000 )
                  ( -1.0000000  0.0000000  0.0000000 )


      isym = 20     120 deg rotation - cart. axis [1,-1,1]       

 cryst.   s(20) = (     0         -1          0      )
                  (     1         -1          0      )
                  (     0         -1          1      )

 cart.    s(20) = (  0.0000000 -1.0000000  0.0000000 )
                  (  0.0000000  0.0000000 -1.0000000 )
                  (  1.0000000  0.0000000  0.0000000 )


      isym = 21     120 deg rotation - cart. axis [1,1,1]        

 cryst.   s(21) = (     0          0         -1      )
                  (     0          1         -1      )
                  (     1          0         -1      )

 cart.    s(21) = (  0.0000000  0.0000000  1.0000000 )
                  (  1.0000000  0.0000000  0.0000000 )
                  (  0.0000000  1.0000000  0.0000000 )


      isym = 22     120 deg rotation - cart. axis [-1,1,-1]      

 cryst.   s(22) = (    -1          1          0      )
                  (    -1          0          0      )
                  (    -1          0          1      )

 cart.    s(22) = (  0.0000000  0.0000000  1.0000000 )
                  ( -1.0000000  0.0000000  0.0000000 )
                  (  0.0000000 -1.0000000  0.0000000 )


      isym = 23     120 deg rotation - cart. axis [1,-1,-1]      

 cryst.   s(23) = (     0          0          1      )
                  (     1          0          0      )
                  (     0          1          0      )

 cart.    s(23) = (  0.0000000  0.0000000 -1.0000000 )
                  ( -1.0000000  0.0000000  0.0000000 )
                  (  0.0000000  1.0000000  0.0000000 )


      isym = 24     120 deg rotation - cart. axis [-1,-1,1]      

 cryst.   s(24) = (     1         -1          0      )
                  (     0         -1          1      )
                  (     0         -1          0      )

 cart.    s(24) = (  0.0000000  0.0000000 -1.0000000 )
                  (  1.0000000  0.0000000  0.0000000 )
                  (  0.0000000 -1.0000000  0.0000000 )


      isym = 25     inversion                                    

 cryst.   s(25) = (    -1          0          0      )    f =(  0.2500000 )
                  (     0         -1          0      )       (  0.2500000 )
                  (     0          0         -1      )       (  0.2500000 )

 cart.    s(25) = ( -1.0000000  0.0000000  0.0000000 )    f =( -0.2500000 )
                  (  0.0000000 -1.0000000  0.0000000 )       (  0.2500000 )
                  (  0.0000000  0.0000000 -1.0000000 )       (  0.2500000 )


      isym = 26     inv. 180 deg rotation - cart. axis [0,0,1]   

 cryst.   s(26) = (     0         -1          1      )    f =(  0.2500000 )
                  (    -1          0          1      )       (  0.2500000 )
                  (     0          0          1      )       (  0.2500000 )

 cart.    s(26) = (  1.0000000  0.0000000  0.0000000 )    f =( -0.2500000 )
                  (  0.0000000  1.0000000  0.0000000 )       (  0.2500000 )
                  (  0.0000000  0.0000000 -1.0000000 )       (  0.2500000 )


      isym = 27     inv. 180 deg rotation - cart. axis [0,1,0]   

 cryst.   s(27) = (     1          0          0      )    f =(  0.2500000 )
                  (     1          0         -1      )       (  0.2500000 )
                  (     1         -1          0      )       (  0.2500000 )

 cart.    s(27) = (  1.0000000  0.0000000  0.0000000 )    f =( -0.2500000 )
                  (  0.0000000 -1.0000000  0.0000000 )       (  0.2500000 )
                  (  0.0000000  0.0000000  1.0000000 )       (  0.2500000 )


      isym = 28     inv. 180 deg rotation - cart. axis [1,0,0]   

 cryst.   s(28) = (     0          1         -1      )    f =(  0.2500000 )
                  (     0          1          0      )       (  0.2500000 )
                  (    -1          1          0      )       (  0.2500000 )

 cart.    s(28) = ( -1.0000000  0.0000000  0.0000000 )    f =( -0.2500000 )
                  (  0.0000000  1.0000000  0.0000000 )       (  0.2500000 )
                  (  0.0000000  0.0000000  1.0000000 )       (  0.2500000 )


      isym = 29     inv. 180 deg rotation - cart. axis [1,1,0]   

 cryst.   s(29) = (     0          1          0      )
                  (     1          0          0      )
                  (     0          0          1      )

 cart.    s(29) = (  0.0000000 -1.0000000  0.0000000 )
                  ( -1.0000000  0.0000000  0.0000000 )
                  (  0.0000000  0.0000000  1.0000000 )


      isym = 30     inv. 180 deg rotation - cart. axis [1,-1,0]  

 cryst.   s(30) = (     1          0         -1      )
                  (     0          1         -1      )
                  (     0          0         -1      )

 cart.    s(30) = (  0.0000000  1.0000000  0.0000000 )
                  (  1.0000000  0.0000000  0.0000000 )
                  (  0.0000000  0.0000000  1.0000000 )


      isym = 31     inv.  90 deg rotation - cart. axis [0,0,-1]  

 cryst.   s(31) = (     0         -1          0      )
                  (     0         -1          1      )
                  (     1         -1          0      )

 cart.    s(31) = (  0.0000000 -1.0000000  0.0000000 )
                  (  1.0000000  0.0000000  0.0000000 )
                  (  0.0000000  0.0000000 -1.0000000 )


      isym = 32     inv.  90 deg rotation - cart. axis [0,0,1]   

 cryst.   s(32) = (    -1          0          1      )
                  (    -1          0          0      )
                  (    -1          1          0      )

 cart.    s(32) = (  0.0000000  1.0000000  0.0000000 )
                  ( -1.0000000  0.0000000  0.0000000 )
                  (  0.0000000  0.0000000 -1.0000000 )


      isym = 33     inv. 180 deg rotation - cart. axis [1,0,1]   

 cryst.   s(33) = (     1          0          0      )
                  (     0          0          1      )
                  (     0          1          0      )

 cart.    s(33) = (  0.0000000  0.0000000 -1.0000000 )
                  (  0.0000000  1.0000000  0.0000000 )
                  ( -1.0000000  0.0000000  0.0000000 )


      isym = 34     inv. 180 deg rotation - cart. axis [-1,0,1]  

 cryst.   s(34) = (    -1          0          0      )
                  (    -1          1          0      )
                  (    -1          0          1      )

 cart.    s(34) = (  0.0000000  0.0000000  1.0000000 )
                  (  0.0000000  1.0000000  0.0000000 )
                  (  1.0000000  0.0000000  0.0000000 )


      isym = 35     inv.  90 deg rotation - cart. axis [0,1,0]   

 cryst.   s(35) = (     0         -1          1      )
                  (     1         -1          0      )
                  (     0         -1          0      )

 cart.    s(35) = (  0.0000000  0.0000000 -1.0000000 )
                  (  0.0000000 -1.0000000  0.0000000 )
                  (  1.0000000  0.0000000  0.0000000 )


      isym = 36     inv.  90 deg rotation - cart. axis [0,-1,0]  

 cryst.   s(36) = (     0          1         -1      )
                  (     0          0         -1      )
                  (     1          0         -1      )

 cart.    s(36) = (  0.0000000  0.0000000  1.0000000 )
                  (  0.0000000 -1.0000000  0.0000000 )
                  ( -1.0000000  0.0000000  0.0000000 )


      isym = 37     inv. 180 deg rotation - cart. axis [0,1,1]   

 cryst.   s(37) = (     1         -1          0      )
                  (     0         -1          0      )
                  (     0         -1          1      )

 cart.    s(37) = (  1.0000000  0.0000000  0.0000000 )
                  (  0.0000000  0.0000000 -1.0000000 )
                  (  0.0000000 -1.0000000  0.0000000 )


      isym = 38     inv. 180 deg rotation - cart. axis [0,1,-1]  

 cryst.   s(38) = (     0          0          1      )
                  (     0          1          0      )
                  (     1          0          0      )

 cart.    s(38) = (  1.0000000  0.0000000  0.0000000 )
                  (  0.0000000  0.0000000  1.0000000 )
                  (  0.0000000  1.0000000  0.0000000 )


      isym = 39     inv.  90 deg rotation - cart. axis [-1,0,0]  

 cryst.   s(39) = (     0          0         -1      )
                  (     1          0         -1      )
                  (     0          1         -1      )

 cart.    s(39) = ( -1.0000000  0.0000000  0.0000000 )
                  (  0.0000000  0.0000000 -1.0000000 )
                  (  0.0000000  1.0000000  0.0000000 )


      isym = 40     inv.  90 deg rotation - cart. axis [1,0,0]   

 cryst.   s(40) = (    -1          1          0      )
                  (    -1          0          1      )
                  (    -1          0          0      )

 cart.    s(40) = ( -1.0000000  0.0000000  0.0000000 )
                  (  0.0000000  0.0000000  1.0000000 )
                  (  0.0000000 -1.0000000  0.0000000 )


      isym = 41     inv. 120 deg rotation - cart. axis [-1,-1,-1]

 cryst.   s(41) = (     1          0         -1      )    f =(  0.2500000 )
                  (     1         -1          0      )       (  0.2500000 )
                  (     1          0          0      )       (  0.2500000 )

 cart.    s(41) = (  0.0000000 -1.0000000  0.0000000 )    f =( -0.2500000 )
                  (  0.0000000  0.0000000 -1.0000000 )       (  0.2500000 )
                  ( -1.0000000  0.0000000  0.0000000 )       (  0.2500000 )


      isym = 42     inv. 120 deg rotation - cart. axis [-1,1,1]  

 cryst.   s(42) = (     0         -1          0      )    f =(  0.2500000 )
                  (     0          0         -1      )       (  0.2500000 )
                  (    -1          0          0      )       (  0.2500000 )

 cart.    s(42) = (  0.0000000  1.0000000  0.0000000 )    f =( -0.2500000 )
                  (  0.0000000  0.0000000 -1.0000000 )       (  0.2500000 )
                  (  1.0000000  0.0000000  0.0000000 )       (  0.2500000 )


      isym = 43     inv. 120 deg rotation - cart. axis [1,1,-1]  

 cryst.   s(43) = (    -1          0          1      )    f =(  0.2500000 )
                  (     0          0          1      )       (  0.2500000 )
                  (     0         -1          1      )       (  0.2500000 )

 cart.    s(43) = (  0.0000000 -1.0000000  0.0000000 )    f =( -0.2500000 )
                  (  0.0000000  0.0000000  1.0000000 )       (  0.2500000 )
                  (  1.0000000  0.0000000  0.0000000 )       (  0.2500000 )


      isym = 44     inv. 120 deg rotation - cart. axis [1,-1,1]  

 cryst.   s(44) = (     0          1          0      )    f =(  0.2500000 )
                  (    -1          1          0      )       (  0.2500000 )
                  (     0          1         -1      )       (  0.2500000 )

 cart.    s(44) = (  0.0000000  1.0000000  0.0000000 )    f =( -0.2500000 )
                  (  0.0000000  0.0000000  1.0000000 )       (  0.2500000 )
                  ( -1.0000000  0.0000000  0.0000000 )       (  0.2500000 )


      isym = 45     inv. 120 deg rotation - cart. axis [1,1,1]   

 cryst.   s(45) = (     0          0          1      )    f =(  0.2500000 )
                  (     0         -1          1      )       (  0.2500000 )
                  (    -1          0          1      )       (  0.2500000 )

 cart.    s(45) = (  0.0000000  0.0000000 -1.0000000 )    f =( -0.2500000 )
                  ( -1.0000000  0.0000000  0.0000000 )       (  0.2500000 )
                  (  0.0000000 -1.0000000  0.0000000 )       (  0.2500000 )


      isym = 46     inv. 120 deg rotation - cart. axis [-1,1,-1] 

 cryst.   s(46) = (     1         -1          0      )    f =(  0.2500000 )
                  (     1          0          0      )       (  0.2500000 )
                  (     1          0         -1      )       (  0.2500000 )

 cart.    s(46) = (  0.0000000  0.0000000 -1.0000000 )    f =( -0.2500000 )
                  (  1.0000000  0.0000000  0.0000000 )       (  0.2500000 )
                  (  0.0000000  1.0000000  0.0000000 )       (  0.2500000 )


      isym = 47     inv. 120 deg rotation - cart. axis [1,-1,-1] 

 cryst.   s(47) = (     0          0         -1      )    f =(  0.2500000 )
                  (    -1          0          0      )       (  0.2500000 )
                  (     0         -1          0      )       (  0.2500000 )

 cart.    s(47) = (  0.0000000  0.0000000  1.0000000 )    f =( -0.2500000 )
                  (  1.0000000  0.0000000  0.0000000 )       (  0.2500000 )
                  (  0.0000000 -1.0000000  0.0000000 )       (  0.2500000 )


      isym = 48     inv. 120 deg rotation - cart. axis [-1,-1,1] 

 cryst.   s(48) = (    -1          1          0      )    f =(  0.2500000 )
                  (     0          1         -1      )       (  0.2500000 )
                  (     0          1          0      )       (  0.2500000 )

 cart.    s(48) = (  0.0000000  0.0000000  1.0000000 )    f =( -0.2500000 )
                  ( -1.0000000  0.0000000  0.0000000 )       (  0.2500000 )
                  (  0.0000000  1.0000000  0.0000000 )       (  0.2500000 )


     point group O_h (m-3m) 
     there are 10 classes
     the character table:

       E     8C3   3C2   6C4   6C2'  i     8S6   3s_h  6S4   6s_d 
A_1g   1.00  1.00  1.00  1.00  1.00  1.00  1.00  1.00  1.00  1.00
A_2g   1.00  1.00  1.00 -1.00 -1.00  1.00  1.00  1.00 -1.00 -1.00
E_g    2.00 -1.00  2.00  0.00  0.00  2.00 -1.00  2.00  0.00  0.00
T_1g   3.00  0.00 -1.00  1.00 -1.00  3.00  0.00 -1.00  1.00 -1.00
T_2g   3.00  0.00 -1.00 -1.00  1.00  3.00  0.00 -1.00 -1.00  1.00
A_1u   1.00  1.00  1.00  1.00  1.00 -1.00 -1.00 -1.00 -1.00 -1.00
A_2u   1.00  1.00  1.00 -1.00 -1.00 -1.00 -1.00 -1.00  1.00  1.00
E_u    2.00 -1.00  2.00  0.00  0.00 -2.00  1.00 -2.00  0.00  0.00
T_1u   3.00  0.00 -1.00  1.00 -1.00 -3.00  0.00  1.00 -1.00  1.00
T_2u   3.00  0.00 -1.00 -1.00  1.00 -3.00  0.00  1.00  1.00 -1.00

     the symmetry operations in each class and the name of the first element:

     E        1
          identity                                               
     8C3     17   19   20   18   24   21   22   23
          120 deg rotation - cart. axis [-1,-1,-1]               
     3C2      2    4    3
          180 deg rotation - cart. axis [0,0,1]                  
     6C4      7    8   15   16   12   11
           90 deg rotation - cart. axis [0,0,-1]                 
     6C2'     5    6   14   13   10    9
          180 deg rotation - cart. axis [1,1,0]                  
     i       25
          inversion                                              
     8S6     41   43   44   42   48   45   46   47
          inv. 120 deg rotation - cart. axis [-1,-1,-1]          
     3s_h    26   28   27
          inv. 180 deg rotation - cart. axis [0,0,1]             
     6S4     31   32   39   40   36   35
          inv.  90 deg rotation - cart. axis [0,0,-1]            
     6s_d    29   30   38   37   34   33
          inv. 180 deg rotation - cart. axis [1,1,0]             

   Cartesian axes

     site n.     atom                  positions (alat units)
         1           Si  tau(   1) = (   0.0000000   0.0000000   0.0000000  )
         2           Si  tau(   2) = (   0.2500000   0.2500000   0.2500000  )

   Crystallographic axes

     site n.     atom                  positions (cryst. coord.)
         1           Si  tau(   1) = (  0.0000000  0.0000000  0.0000000  )
         2           Si  tau(   2) = ( -0.2500000  0.7500000 -0.2500000  )

     number of k points=   141
                       cart. coord. in units 2pi/alat
        k(    1) = (   0.3750000   0.3750000   0.7500000), wk =   0.0141844
        k(    2) = (   0.3671875   0.3671875   0.7343750), wk =   0.0141844
        k(    3) = (   0.3593750   0.3593750   0.7187500), wk =   0.0141844
        k(    4) = (   0.3515625   0.3515625   0.7031250), wk =   0.0141844
        k(    5) = (   0.3437500   0.3437500   0.6875000), wk =   0.0141844
        k(    6) = (   0.3359375   0.3359375   0.6718750), wk =   0.0141844
        k(    7) = (   0.3281250   0.3281250   0.6562500), wk =   0.0141844
        k(    8) = (   0.3203125   0.3203125   0.6406250), wk =   0.0141844
        k(    9) = (   0.3125000   0.3125000   0.6250000), wk =   0.0141844
        k(   10) = (   0.3046875   0.3046875   0.6093750), wk =   0.0141844
        k(   11) = (   0.2968750   0.2968750   0.5937500), wk =   0.0141844
        k(   12) = (   0.2890625   0.2890625   0.5781250), wk =   0.0141844
        k(   13) = (   0.2812500   0.2812500   0.5625000), wk =   0.0141844
        k(   14) = (   0.2734375   0.2734375   0.5468750), wk =   0.0141844
        k(   15) = (   0.2656250   0.2656250   0.5312500), wk =   0.0141844
        k(   16) = (   0.2578125   0.2578125   0.5156250), wk =   0.0141844
        k(   17) = (   0.2500000   0.2500000   0.5000000), wk =   0.0141844
        k(   18) = (   0.2421875   0.2421875   0.4843750), wk =   0.0141844
        k(   19) = (   0.2343750   0.2343750   0.4687500), wk =   0.0141844
        k(   20) = (   0.2265625   0.2265625   0.4531250), wk =   0.0141844
        k(   21) = (   0.2187500   0.2187500   0.4375000), wk =   0.0141844
        k(   22) = (   0.2109375   0.2109375   0.4218750), wk =   0.0141844
        k(   23) = (   0.2031250   0.2031250   0.4062500), wk =   0.0141844
        k(   24) = (   0.1953125   0.1953125   0.3906250), wk =   0.0141844
        k(   25) = (   0.1875000   0.1875000   0.3750000), wk =   0.0141844
        k(   26) = (   0.1796875   0.1796875   0.3593750), wk =   0.0141844
        k(   27) = (   0.1718750   0.1718750   0.3437500), wk =   0.0141844
        k(   28) = (   0.1640625   0.1640625   0.3281250), wk =   0.0141844
        k(   29) = (   0.1562500   0.1562500   0.3125000), wk =   0.0141844
        k(   30) = (   0.1484375   0.1484375   0.2968750), wk =   0.0141844
        k(   31) = (   0.1406250   0.1406250   0.2812500), wk =   0.0141844
        k(   32) = (   0.1328125   0.1328125   0.2656250), wk =   0.0141844
        k(   33) = (   0.1250000   0.1250000   0.2500000), wk =   0.0141844
        k(   34) = (   0.1171875   0.1171875   0.2343750), wk =   0.0141844
        k(   35) = (   0.1093750   0.1093750   0.2187500), wk =   0.0141844
        k(   36) = (   0.1015625   0.1015625   0.2031250), wk =   0.0141844
        k(   37) = (   0.0937500   0.0937500   0.1875000), wk =   0.0141844
        k(   38) = (   0.0859375   0.0859375   0.1718750), wk =   0.0141844
        k(   39) = (   0.0781250   0.0781250   0.1562500), wk =   0.0141844
        k(   40) = (   0.0703125   0.0703125   0.1406250), wk =   0.0141844
        k(   41) = (   0.0625000   0.0625000   0.1250000), wk =   0.0141844
        k(   42) = (   0.0546875   0.0546875   0.1093750), wk =   0.0141844
        k(   43) = (   0.0468750   0.0468750   0.0937500), wk =   0.0141844
        k(   44) = (   0.0390625   0.0390625   0.0781250), wk =   0.0141844
        k(   45) = (   0.0312500   0.0312500   0.0625000), wk =   0.0141844
        k(   46) = (   0.0234375   0.0234375   0.0468750), wk =   0.0141844
        k(   47) = (   0.0156250   0.0156250   0.0312500), wk =   0.0141844
        k(   48) = (   0.0078125   0.0078125   0.0156250), wk =   0.0141844
        k(   49) = (   0.0000000   0.0000000   0.0000000), wk =   0.0141844
        k(   50) = (   0.0128205   0.0128205   0.0128205), wk =   0.0141844
        k(   51) = (   0.0256410   0.0256410   0.0256410), wk =   0.0141844
        k(   52) = (   0.0384615   0.0384615   0.0384615), wk =   0.0141844
        k(   53) = (   0.0512821   0.0512821   0.0512821), wk =   0.0141844
        k(   54) = (   0.0641026   0.0641026   0.0641026), wk =   0.0141844
        k(   55) = (   0.0769231   0.0769231   0.0769231), wk =   0.0141844
        k(   56) = (   0.0897436   0.0897436   0.0897436), wk =   0.0141844
        k(   57) = (   0.1025641   0.1025641   0.1025641), wk =   0.0141844
        k(   58) = (   0.1153846   0.1153846   0.1153846), wk =   0.0141844
        k(   59) = (   0.1282051   0.1282051   0.1282051), wk =   0.0141844
        k(   60) = (   0.1410256   0.1410256   0.1410256), wk =   0.0141844
        k(   61) = (   0.1538462   0.1538462   0.1538462), wk =   0.0141844
        k(   62) = (   0.1666667   0.1666667   0.1666667), wk =   0.0141844
        k(   63) = (   0.1794872   0.1794872   0.1794872), wk =   0.0141844
        k(   64) = (   0.1923077   0.1923077   0.1923077), wk =   0.0141844
        k(   65) = (   0.2051282   0.2051282   0.2051282), wk =   0.0141844
        k(   66) = (   0.2179487   0.2179487   0.2179487), wk =   0.0141844
        k(   67) = (   0.2307692   0.2307692   0.2307692), wk =   0.0141844
        k(   68) = (   0.2435897   0.2435897   0.2435897), wk =   0.0141844
        k(   69) = (   0.2564103   0.2564103   0.2564103), wk =   0.0141844
        k(   70) = (   0.2692308   0.2692308   0.2692308), wk =   0.0141844
        k(   71) = (   0.2820513   0.2820513   0.2820513), wk =   0.0141844
        k(   72) = (   0.2948718   0.2948718   0.2948718), wk =   0.0141844
        k(   73) = (   0.3076923   0.3076923   0.3076923), wk =   0.0141844
        k(   74) = (   0.3205128   0.3205128   0.3205128), wk =   0.0141844
        k(   75) = (   0.3333333   0.3333333   0.3333333), wk =   0.0141844
        k(   76) = (   0.3461538   0.3461538   0.3461538), wk =   0.0141844
        k(   77) = (   0.3589744   0.3589744   0.3589744), wk =   0.0141844
        k(   78) = (   0.3717949   0.3717949   0.3717949), wk =   0.0141844
        k(   79) = (   0.3846154   0.3846154   0.3846154), wk =   0.0141844
        k(   80) = (   0.3974359   0.3974359   0.3974359), wk =   0.0141844
        k(   81) = (   0.4102564   0.4102564   0.4102564), wk =   0.0141844
        k(   82) = (   0.4230769   0.4230769   0.4230769), wk =   0.0141844
        k(   83) = (   0.4358974   0.4358974   0.4358974), wk =   0.0141844
        k(   84) = (   0.4487179   0.4487179   0.4487179), wk =   0.0141844
        k(   85) = (   0.4615385   0.4615385   0.4615385), wk =   0.0141844
        k(   86) = (   0.4743590   0.4743590   0.4743590), wk =   0.0141844
        k(   87) = (   0.4871795   0.4871795   0.4871795), wk =   0.0141844
        k(   88) = (   0.5000000   0.5000000   0.5000000), wk =   0.0141844
        k(   89) = (   0.5000000   0.4919355   0.5080645), wk =   0.0141844
        k(   90) = (   0.5000000   0.4838710   0.5161290), wk =   0.0141844
        k(   91) = (   0.5000000   0.4758065   0.5241935), wk =   0.0141844
        k(   92) = (   0.5000000   0.4677419   0.5322581), wk =   0.0141844
        k(   93) = (   0.5000000   0.4596774   0.5403226), wk =   0.0141844
        k(   94) = (   0.5000000   0.4516129   0.5483871), wk =   0.0141844
        k(   95) = (   0.5000000   0.4435484   0.5564516), wk =   0.0141844
        k(   96) = (   0.5000000   0.4354839   0.5645161), wk =   0.0141844
        k(   97) = (   0.5000000   0.4274194   0.5725806), wk =   0.0141844
        k(   98) = (   0.5000000   0.4193548   0.5806452), wk =   0.0141844
        k(   99) = (   0.5000000   0.4112903   0.5887097), wk =   0.0141844
        k(  100) = (   0.5000000   0.4032258   0.5967742), wk =   0.0141844
        k(  101) = (   0.5000000   0.3951613   0.6048387), wk =   0.0141844
        k(  102) = (   0.5000000   0.3870968   0.6129032), wk =   0.0141844
        k(  103) = (   0.5000000   0.3790323   0.6209677), wk =   0.0141844
        k(  104) = (   0.5000000   0.3709677   0.6290323), wk =   0.0141844
        k(  105) = (   0.5000000   0.3629032   0.6370968), wk =   0.0141844
        k(  106) = (   0.5000000   0.3548387   0.6451613), wk =   0.0141844
        k(  107) = (   0.5000000   0.3467742   0.6532258), wk =   0.0141844
        k(  108) = (   0.5000000   0.3387097   0.6612903), wk =   0.0141844
        k(  109) = (   0.5000000   0.3306452   0.6693548), wk =   0.0141844
        k(  110) = (   0.5000000   0.3225806   0.6774194), wk =   0.0141844
        k(  111) = (   0.5000000   0.3145161   0.6854839), wk =   0.0141844
        k(  112) = (   0.5000000   0.3064516   0.6935484), wk =   0.0141844
        k(  113) = (   0.5000000   0.2983871   0.7016129), wk =   0.0141844
        k(  114) = (   0.5000000   0.2903226   0.7096774), wk =   0.0141844
        k(  115) = (   0.5000000   0.2822581   0.7177419), wk =   0.0141844
        k(  116) = (   0.5000000   0.2741935   0.7258065), wk =   0.0141844
        k(  117) = (   0.5000000   0.2661290   0.7338710), wk =   0.0141844
        k(  118) = (   0.5000000   0.2580645   0.7419355), wk =   0.0141844
        k(  119) = (   0.5000000   0.2500000   0.7500000), wk =   0.0141844
        k(  120) = (   0.5000000   0.2386364   0.7386364), wk =   0.0141844
        k(  121) = (   0.5000000   0.2272727   0.7272727), wk =   0.0141844
        k(  122) = (   0.5000000   0.2159091   0.7159091), wk =   0.0141844
        k(  123) = (   0.5000000   0.2045455   0.7045455), wk =   0.0141844
        k(  124) = (   0.5000000   0.1931818   0.6931818), wk =   0.0141844
        k(  125) = (   0.5000000   0.1818182   0.6818182), wk =   0.0141844
        k(  126) = (   0.5000000   0.1704545   0.6704545), wk =   0.0141844
        k(  127) = (   0.5000000   0.1590909   0.6590909), wk =   0.0141844
        k(  128) = (   0.5000000   0.1477273   0.6477273), wk =   0.0141844
        k(  129) = (   0.5000000   0.1363636   0.6363636), wk =   0.0141844
        k(  130) = (   0.5000000   0.1250000   0.6250000), wk =   0.0141844
        k(  131) = (   0.5000000   0.1136364   0.6136364), wk =   0.0141844
        k(  132) = (   0.5000000   0.1022727   0.6022727), wk =   0.0141844
        k(  133) = (   0.5000000   0.0909091   0.5909091), wk =   0.0141844
        k(  134) = (   0.5000000   0.0795455   0.5795455), wk =   0.0141844
        k(  135) = (   0.5000000   0.0681818   0.5681818), wk =   0.0141844
        k(  136) = (   0.5000000   0.0568182   0.5568182), wk =   0.0141844
        k(  137) = (   0.5000000   0.0454545   0.5454545), wk =   0.0141844
        k(  138) = (   0.5000000   0.0340909   0.5340909), wk =   0.0141844
        k(  139) = (   0.5000000   0.0227273   0.5227273), wk =   0.0141844
        k(  140) = (   0.5000000   0.0113636   0.5113636), wk =   0.0141844
        k(  141) = (   0.5000000   0.0000000   0.5000000), wk =   0.0141844

                       cryst. coord.
        k(    1) = (   0.1875000   0.5625000   0.0000000), wk =   0.0141844
        k(    2) = (   0.1835938   0.5507812   0.0000000), wk =   0.0141844
        k(    3) = (   0.1796875   0.5390625   0.0000000), wk =   0.0141844
        k(    4) = (   0.1757812   0.5273438   0.0000000), wk =   0.0141844
        k(    5) = (   0.1718750   0.5156250   0.0000000), wk =   0.0141844
        k(    6) = (   0.1679688   0.5039062   0.0000000), wk =   0.0141844
        k(    7) = (   0.1640625   0.4921875   0.0000000), wk =   0.0141844
        k(    8) = (   0.1601562   0.4804688   0.0000000), wk =   0.0141844
        k(    9) = (   0.1562500   0.4687500   0.0000000), wk =   0.0141844
        k(   10) = (   0.1523438   0.4570312   0.0000000), wk =   0.0141844
        k(   11) = (   0.1484375   0.4453125   0.0000000), wk =   0.0141844
        k(   12) = (   0.1445312   0.4335938   0.0000000), wk =   0.0141844
        k(   13) = (   0.1406250   0.4218750   0.0000000), wk =   0.0141844
        k(   14) = (   0.1367188   0.4101562   0.0000000), wk =   0.0141844
        k(   15) = (   0.1328125   0.3984375   0.0000000), wk =   0.0141844
        k(   16) = (   0.1289062   0.3867188   0.0000000), wk =   0.0141844
        k(   17) = (   0.1250000   0.3750000   0.0000000), wk =   0.0141844
        k(   18) = (   0.1210938   0.3632812   0.0000000), wk =   0.0141844
        k(   19) = (   0.1171875   0.3515625   0.0000000), wk =   0.0141844
        k(   20) = (   0.1132812   0.3398438   0.0000000), wk =   0.0141844
        k(   21) = (   0.1093750   0.3281250   0.0000000), wk =   0.0141844
        k(   22) = (   0.1054688   0.3164062   0.0000000), wk =   0.0141844
        k(   23) = (   0.1015625   0.3046875   0.0000000), wk =   0.0141844
        k(   24) = (   0.0976562   0.2929688   0.0000000), wk =   0.0141844
        k(   25) = (   0.0937500   0.2812500   0.0000000), wk =   0.0141844
        k(   26) = (   0.0898438   0.2695312   0.0000000), wk =   0.0141844
        k(   27) = (   0.0859375   0.2578125   0.0000000), wk =   0.0141844
        k(   28) = (   0.0820312   0.2460938   0.0000000), wk =   0.0141844
        k(   29) = (   0.0781250   0.2343750   0.0000000), wk =   0.0141844
        k(   30) = (   0.0742188   0.2226562   0.0000000), wk =   0.0141844
        k(   31) = (   0.0703125   0.2109375   0.0000000), wk =   0.0141844
        k(   32) = (   0.0664062   0.1992188   0.0000000), wk =   0.0141844
        k(   33) = (   0.0625000   0.1875000   0.0000000), wk =   0.0141844
        k(   34) = (   0.0585938   0.1757812   0.0000000), wk =   0.0141844
        k(   35) = (   0.0546875   0.1640625   0.0000000), wk =   0.0141844
        k(   36) = (   0.0507812   0.1523438   0.0000000), wk =   0.0141844
        k(   37) = (   0.0468750   0.1406250   0.0000000), wk =   0.0141844
        k(   38) = (   0.0429688   0.1289062   0.0000000), wk =   0.0141844
        k(   39) = (   0.0390625   0.1171875   0.0000000), wk =   0.0141844
        k(   40) = (   0.0351562   0.1054688   0.0000000), wk =   0.0141844
        k(   41) = (   0.0312500   0.0937500   0.0000000), wk =   0.0141844
        k(   42) = (   0.0273438   0.0820312   0.0000000), wk =   0.0141844
        k(   43) = (   0.0234375   0.0703125   0.0000000), wk =   0.0141844
        k(   44) = (   0.0195312   0.0585938   0.0000000), wk =   0.0141844
        k(   45) = (   0.0156250   0.0468750   0.0000000), wk =   0.0141844
        k(   46) = (   0.0117188   0.0351562   0.0000000), wk =   0.0141844
        k(   47) = (   0.0078125   0.0234375   0.0000000), wk =   0.0141844
        k(   48) = (   0.0039062   0.0117188   0.0000000), wk =   0.0141844
        k(   49) = (   0.0000000   0.0000000   0.0000000), wk =   0.0141844
        k(   50) = (   0.0000000   0.0128205   0.0000000), wk =   0.0141844
        k(   51) = (   0.0000000   0.0256410   0.0000000), wk =   0.0141844
        k(   52) = (   0.0000000   0.0384615   0.0000000), wk =   0.0141844
        k(   53) = (   0.0000000   0.0512821   0.0000000), wk =   0.0141844
        k(   54) = (   0.0000000   0.0641026   0.0000000), wk =   0.0141844
        k(   55) = (   0.0000000   0.0769231   0.0000000), wk =   0.0141844
        k(   56) = (   0.0000000   0.0897436   0.0000000), wk =   0.0141844
        k(   57) = (   0.0000000   0.1025641   0.0000000), wk =   0.0141844
        k(   58) = (   0.0000000   0.1153846   0.0000000), wk =   0.0141844
        k(   59) = (   0.0000000   0.1282051   0.0000000), wk =   0.0141844
        k(   60) = (   0.0000000   0.1410256   0.0000000), wk =   0.0141844
        k(   61) = (   0.0000000   0.1538462   0.0000000), wk =   0.0141844
        k(   62) = (   0.0000000   0.1666667   0.0000000), wk =   0.0141844
        k(   63) = (   0.0000000   0.1794872   0.0000000), wk =   0.0141844
        k(   64) = (   0.0000000   0.1923077   0.0000000), wk =   0.0141844
        k(   65) = (   0.0000000   0.2051282   0.0000000), wk =   0.0141844
        k(   66) = (   0.0000000   0.2179487   0.0000000), wk =   0.0141844
        k(   67) = (   0.0000000   0.2307692   0.0000000), wk =   0.0141844
        k(   68) = (   0.0000000   0.2435897   0.0000000), wk =   0.0141844
        k(   69) = (   0.0000000   0.2564103   0.0000000), wk =   0.0141844
        k(   70) = (   0.0000000   0.2692308   0.0000000), wk =   0.0141844
        k(   71) = (   0.0000000   0.2820513   0.0000000), wk =   0.0141844
        k(   72) = (   0.0000000   0.2948718   0.0000000), wk =   0.0141844
        k(   73) = (   0.0000000   0.3076923   0.0000000), wk =   0.0141844
        k(   74) = (   0.0000000   0.3205128   0.0000000), wk =   0.0141844
        k(   75) = (   0.0000000   0.3333333   0.0000000), wk =   0.0141844
        k(   76) = (   0.0000000   0.3461538   0.0000000), wk =   0.0141844
        k(   77) = (   0.0000000   0.3589744   0.0000000), wk =   0.0141844
        k(   78) = (   0.0000000   0.3717949   0.0000000), wk =   0.0141844
        k(   79) = (   0.0000000   0.3846154   0.0000000), wk =   0.0141844
        k(   80) = (   0.0000000   0.3974359   0.0000000), wk =   0.0141844
        k(   81) = (   0.0000000   0.4102564   0.0000000), wk =   0.0141844
        k(   82) = (   0.0000000   0.4230769   0.0000000), wk =   0.0141844
        k(   83) = (   0.0000000   0.4358974   0.0000000), wk =   0.0141844
        k(   84) = (   0.0000000   0.4487179   0.0000000), wk =   0.0141844
        k(   85) = (   0.0000000   0.4615385   0.0000000), wk =   0.0141844
        k(   86) = (   0.0000000   0.4743590   0.0000000), wk =   0.0141844
        k(   87) = (   0.0000000   0.4871795   0.0000000), wk =   0.0141844
        k(   88) = (   0.0000000   0.5000000   0.0000000), wk =   0.0141844
        k(   89) = (   0.0040323   0.5000000  -0.0040323), wk =   0.0141844
        k(   90) = (   0.0080645   0.5000000  -0.0080645), wk =   0.0141844
        k(   91) = (   0.0120968   0.5000000  -0.0120968), wk =   0.0141844
        k(   92) = (   0.0161290   0.5000000  -0.0161290), wk =   0.0141844
        k(   93) = (   0.0201613   0.5000000  -0.0201613), wk =   0.0141844
        k(   94) = (   0.0241935   0.5000000  -0.0241935), wk =   0.0141844
        k(   95) = (   0.0282258   0.5000000  -0.0282258), wk =   0.0141844
        k(   96) = (   0.0322581   0.5000000  -0.0322581), wk =   0.0141844
        k(   97) = (   0.0362903   0.5000000  -0.0362903), wk =   0.0141844
        k(   98) = (   0.0403226   0.5000000  -0.0403226), wk =   0.0141844
        k(   99) = (   0.0443548   0.5000000  -0.0443548), wk =   0.0141844
        k(  100) = (   0.0483871   0.5000000  -0.0483871), wk =   0.0141844
        k(  101) = (   0.0524194   0.5000000  -0.0524194), wk =   0.0141844
        k(  102) = (   0.0564516   0.5000000  -0.0564516), wk =   0.0141844
        k(  103) = (   0.0604839   0.5000000  -0.0604839), wk =   0.0141844
        k(  104) = (   0.0645161   0.5000000  -0.0645161), wk =   0.0141844
        k(  105) = (   0.0685484   0.5000000  -0.0685484), wk =   0.0141844
        k(  106) = (   0.0725806   0.5000000  -0.0725806), wk =   0.0141844
        k(  107) = (   0.0766129   0.5000000  -0.0766129), wk =   0.0141844
        k(  108) = (   0.0806452   0.5000000  -0.0806452), wk =   0.0141844
        k(  109) = (   0.0846774   0.5000000  -0.0846774), wk =   0.0141844
        k(  110) = (   0.0887097   0.5000000  -0.0887097), wk =   0.0141844
        k(  111) = (   0.0927419   0.5000000  -0.0927419), wk =   0.0141844
        k(  112) = (   0.0967742   0.5000000  -0.0967742), wk =   0.0141844
        k(  113) = (   0.1008065   0.5000000  -0.1008065), wk =   0.0141844
        k(  114) = (   0.1048387   0.5000000  -0.1048387), wk =   0.0141844
        k(  115) = (   0.1088710   0.5000000  -0.1088710), wk =   0.0141844
        k(  116) = (   0.1129032   0.5000000  -0.1129032), wk =   0.0141844
        k(  117) = (   0.1169355   0.5000000  -0.1169355), wk =   0.0141844
        k(  118) = (   0.1209677   0.5000000  -0.1209677), wk =   0.0141844
        k(  119) = (   0.1250000   0.5000000  -0.1250000), wk =   0.0141844
        k(  120) = (   0.1193182   0.4886364  -0.1306818), wk =   0.0141844
        k(  121) = (   0.1136364   0.4772727  -0.1363636), wk =   0.0141844
        k(  122) = (   0.1079545   0.4659091  -0.1420455), wk =   0.0141844
        k(  123) = (   0.1022727   0.4545455  -0.1477273), wk =   0.0141844
        k(  124) = (   0.0965909   0.4431818  -0.1534091), wk =   0.0141844
        k(  125) = (   0.0909091   0.4318182  -0.1590909), wk =   0.0141844
        k(  126) = (   0.0852273   0.4204545  -0.1647727), wk =   0.0141844
        k(  127) = (   0.0795455   0.4090909  -0.1704545), wk =   0.0141844
        k(  128) = (   0.0738636   0.3977273  -0.1761364), wk =   0.0141844
        k(  129) = (   0.0681818   0.3863636  -0.1818182), wk =   0.0141844
        k(  130) = (   0.0625000   0.3750000  -0.1875000), wk =   0.0141844
        k(  131) = (   0.0568182   0.3636364  -0.1931818), wk =   0.0141844
        k(  132) = (   0.0511364   0.3522727  -0.1988636), wk =   0.0141844
        k(  133) = (   0.0454545   0.3409091  -0.2045455), wk =   0.0141844
        k(  134) = (   0.0397727   0.3295455  -0.2102273), wk =   0.0141844
        k(  135) = (   0.0340909   0.3181818  -0.2159091), wk =   0.0141844
        k(  136) = (   0.0284091   0.3068182  -0.2215909), wk =   0.0141844
        k(  137) = (   0.0227273   0.2954545  -0.2272727), wk =   0.0141844
        k(  138) = (   0.0170455   0.2840909  -0.2329545), wk =   0.0141844
        k(  139) = (   0.0113636   0.2727273  -0.2386364), wk =   0.0141844
        k(  140) = (   0.0056818   0.2613636  -0.2443182), wk =   0.0141844
        k(  141) = (   0.0000000   0.2500000  -0.2500000), wk =   0.0141844

     Dense  grid:     2733 G-vectors     FFT dimensions: (  20,  20,  20)

     Dynamical RAM for                 wfc:       0.04 MB

     Dynamical RAM for     wfc (w. buffer):       0.04 MB

     Dynamical RAM for           str. fact:       0.02 MB

     Dynamical RAM for           local pot:       0.00 MB

     Dynamical RAM for          nlocal pot:       0.09 MB

     Dynamical RAM for                qrad:       0.68 MB

     Dynamical RAM for          rho,v,vnew:       0.15 MB

     Dynamical RAM for           G-vectors:       0.09 MB

     Dynamical RAM for          h,s,v(r/c):       0.05 MB

     Dynamical RAM for          <psi|beta>:       0.01 MB

     Dynamical RAM for                 psi:       0.08 MB

     Dynamical RAM for                hpsi:       0.08 MB

     Dynamical RAM for                spsi:       0.08 MB

     Dynamical RAM for      wfcinit/wfcrot:       0.09 MB

     Dynamical RAM for           addusdens:       3.92 MB

     Estimated static dynamical RAM per process >       1.28 MB

     Estimated max dynamical RAM per process >       5.19 MB

     Estimated total dynamical RAM >      10.38 MB

     Check: negative core charge=   -0.000023

     The potential is recalculated from file :
     /burg/home/hqp2000/mcu/data/QE/si_band_dos/tmp/si.save/charge-density

     Starting wfcs are    8 randomized atomic wfcs +    8 random wfcs
     Checking if some PAW data can be deallocated... 

     Band Structure Calculation
     Davidson diagonalization with overlap

     Computing kpt #:     1  of   141
     total cpu time spent up to now is        0.4 secs

     Computing kpt #:     2  of   141
     total cpu time spent up to now is        0.4 secs

     Computing kpt #:     3  of   141
     total cpu time spent up to now is        0.5 secs

     Computing kpt #:     4  of   141
     total cpu time spent up to now is        0.5 secs

     Computing kpt #:     5  of   141
     total cpu time spent up to now is        0.6 secs

     Computing kpt #:     6  of   141
     total cpu time spent up to now is        0.6 secs

     Computing kpt #:     7  of   141
     total cpu time spent up to now is        0.8 secs

     Computing kpt #:     8  of   141
     total cpu time spent up to now is        0.8 secs

     Computing kpt #:     9  of   141
     total cpu time spent up to now is        0.9 secs

     Computing kpt #:    10  of   141
     total cpu time spent up to now is        0.9 secs

     Computing kpt #:    11  of   141
     total cpu time spent up to now is        1.0 secs

     Computing kpt #:    12  of   141
     total cpu time spent up to now is        1.0 secs

     Computing kpt #:    13  of   141
     total cpu time spent up to now is        1.1 secs

     Computing kpt #:    14  of   141
     total cpu time spent up to now is        1.1 secs

     Computing kpt #:    15  of   141
     total cpu time spent up to now is        1.2 secs

     Computing kpt #:    16  of   141
     total cpu time spent up to now is        1.2 secs

     Computing kpt #:    17  of   141
     total cpu time spent up to now is        1.3 secs

     Computing kpt #:    18  of   141
     total cpu time spent up to now is        1.3 secs

     Computing kpt #:    19  of   141
     total cpu time spent up to now is        1.4 secs

     Computing kpt #:    20  of   141
     total cpu time spent up to now is        1.4 secs

     Computing kpt #:    21  of   141
     total cpu time spent up to now is        1.5 secs

     Computing kpt #:    22  of   141
     total cpu time spent up to now is        1.5 secs

     Computing kpt #:    23  of   141
     total cpu time spent up to now is        1.6 secs

     Computing kpt #:    24  of   141
     total cpu time spent up to now is        1.7 secs

     Computing kpt #:    25  of   141
     total cpu time spent up to now is        1.7 secs

     Computing kpt #:    26  of   141
     total cpu time spent up to now is        1.8 secs

     Computing kpt #:    27  of   141
     total cpu time spent up to now is        1.9 secs

     Computing kpt #:    28  of   141
     total cpu time spent up to now is        2.0 secs

     Computing kpt #:    29  of   141
     total cpu time spent up to now is        2.0 secs

     Computing kpt #:    30  of   141
     total cpu time spent up to now is        2.1 secs

     Computing kpt #:    31  of   141
     total cpu time spent up to now is        2.2 secs

     Computing kpt #:    32  of   141
     total cpu time spent up to now is        2.2 secs

     Computing kpt #:    33  of   141
     total cpu time spent up to now is        2.3 secs

     Computing kpt #:    34  of   141
     total cpu time spent up to now is        2.3 secs

     Computing kpt #:    35  of   141
     total cpu time spent up to now is        2.4 secs

     Computing kpt #:    36  of   141
     total cpu time spent up to now is        2.5 secs

     Computing kpt #:    37  of   141
     total cpu time spent up to now is        2.5 secs

     Computing kpt #:    38  of   141
     total cpu time spent up to now is        2.6 secs

     Computing kpt #:    39  of   141
     total cpu time spent up to now is        2.6 secs

     Computing kpt #:    40  of   141
     total cpu time spent up to now is        2.7 secs

     Computing kpt #:    41  of   141
     total cpu time spent up to now is        2.7 secs

     Computing kpt #:    42  of   141
     total cpu time spent up to now is        2.8 secs

     Computing kpt #:    43  of   141
     total cpu time spent up to now is        2.9 secs

     Computing kpt #:    44  of   141
     total cpu time spent up to now is        2.9 secs

     Computing kpt #:    45  of   141
     total cpu time spent up to now is        3.0 secs

     Computing kpt #:    46  of   141
     total cpu time spent up to now is        3.1 secs

     Computing kpt #:    47  of   141
     total cpu time spent up to now is        3.1 secs

     Computing kpt #:    48  of   141
     total cpu time spent up to now is        3.2 secs

     Computing kpt #:    49  of   141
     total cpu time spent up to now is        3.2 secs

     Computing kpt #:    50  of   141
     total cpu time spent up to now is        3.3 secs

     Computing kpt #:    51  of   141
     total cpu time spent up to now is        3.3 secs

     Computing kpt #:    52  of   141
     total cpu time spent up to now is        3.4 secs

     Computing kpt #:    53  of   141
     total cpu time spent up to now is        3.4 secs

     Computing kpt #:    54  of   141
     total cpu time spent up to now is        3.5 secs

     Computing kpt #:    55  of   141
     total cpu time spent up to now is        3.5 secs

     Computing kpt #:    56  of   141
     total cpu time spent up to now is        3.6 secs

     Computing kpt #:    57  of   141
     total cpu time spent up to now is        3.6 secs

     Computing kpt #:    58  of   141
     total cpu time spent up to now is        3.7 secs

     Computing kpt #:    59  of   141
     total cpu time spent up to now is        3.7 secs

     Computing kpt #:    60  of   141
     total cpu time spent up to now is        3.7 secs

     Computing kpt #:    61  of   141
     total cpu time spent up to now is        3.8 secs

     Computing kpt #:    62  of   141
     total cpu time spent up to now is        3.8 secs

     Computing kpt #:    63  of   141
     total cpu time spent up to now is        3.9 secs

     Computing kpt #:    64  of   141
     total cpu time spent up to now is        3.9 secs

     Computing kpt #:    65  of   141
     total cpu time spent up to now is        3.9 secs

     Computing kpt #:    66  of   141
     total cpu time spent up to now is        4.0 secs

     Computing kpt #:    67  of   141
     total cpu time spent up to now is        4.0 secs

     Computing kpt #:    68  of   141
     total cpu time spent up to now is        4.1 secs

     Computing kpt #:    69  of   141
     total cpu time spent up to now is        4.1 secs

     Computing kpt #:    70  of   141
     total cpu time spent up to now is        4.2 secs

     Computing kpt #:    71  of   141
     total cpu time spent up to now is        4.2 secs

     Computing kpt #:    72  of   141
     total cpu time spent up to now is        4.2 secs

     Computing kpt #:    73  of   141
     total cpu time spent up to now is        4.3 secs

     Computing kpt #:    74  of   141
     total cpu time spent up to now is        4.3 secs

     Computing kpt #:    75  of   141
     total cpu time spent up to now is        4.4 secs

     Computing kpt #:    76  of   141
     total cpu time spent up to now is        4.4 secs

     Computing kpt #:    77  of   141
     total cpu time spent up to now is        4.5 secs

     Computing kpt #:    78  of   141
     total cpu time spent up to now is        4.5 secs

     Computing kpt #:    79  of   141
     total cpu time spent up to now is        4.5 secs

     Computing kpt #:    80  of   141
     total cpu time spent up to now is        4.6 secs

     Computing kpt #:    81  of   141
     total cpu time spent up to now is        4.6 secs

     Computing kpt #:    82  of   141
     total cpu time spent up to now is        4.7 secs

     Computing kpt #:    83  of   141
     total cpu time spent up to now is        4.7 secs

     Computing kpt #:    84  of   141
     total cpu time spent up to now is        4.7 secs

     Computing kpt #:    85  of   141
     total cpu time spent up to now is        4.8 secs

     Computing kpt #:    86  of   141
     total cpu time spent up to now is        4.8 secs

     Computing kpt #:    87  of   141
     total cpu time spent up to now is        4.9 secs

     Computing kpt #:    88  of   141
     total cpu time spent up to now is        4.9 secs

     Computing kpt #:    89  of   141
     total cpu time spent up to now is        5.0 secs

     Computing kpt #:    90  of   141
     total cpu time spent up to now is        5.0 secs

     Computing kpt #:    91  of   141
     total cpu time spent up to now is        5.0 secs

     Computing kpt #:    92  of   141
     total cpu time spent up to now is        5.1 secs

     Computing kpt #:    93  of   141
     total cpu time spent up to now is        5.1 secs

     Computing kpt #:    94  of   141
     total cpu time spent up to now is        5.2 secs

     Computing kpt #:    95  of   141
     total cpu time spent up to now is        5.2 secs

     Computing kpt #:    96  of   141
     total cpu time spent up to now is        5.3 secs

     Computing kpt #:    97  of   141
     total cpu time spent up to now is        5.3 secs

     Computing kpt #:    98  of   141
     total cpu time spent up to now is        5.3 secs

     Computing kpt #:    99  of   141
     total cpu time spent up to now is        5.4 secs

     Computing kpt #:   100  of   141
     total cpu time spent up to now is        5.4 secs

     Computing kpt #:   101  of   141
     total cpu time spent up to now is        5.5 secs

     Computing kpt #:   102  of   141
     total cpu time spent up to now is        5.5 secs

     Computing kpt #:   103  of   141
     total cpu time spent up to now is        5.6 secs

     Computing kpt #:   104  of   141
     total cpu time spent up to now is        5.6 secs

     Computing kpt #:   105  of   141
     total cpu time spent up to now is        5.7 secs

     Computing kpt #:   106  of   141
     total cpu time spent up to now is        5.7 secs

     Computing kpt #:   107  of   141
     total cpu time spent up to now is        5.8 secs

     Computing kpt #:   108  of   141
     total cpu time spent up to now is        5.8 secs

     Computing kpt #:   109  of   141
     total cpu time spent up to now is        5.8 secs

     Computing kpt #:   110  of   141
     total cpu time spent up to now is        5.9 secs

     Computing kpt #:   111  of   141
     total cpu time spent up to now is        5.9 secs

     Computing kpt #:   112  of   141
     total cpu time spent up to now is        6.0 secs

     Computing kpt #:   113  of   141
     total cpu time spent up to now is        6.0 secs

     Computing kpt #:   114  of   141
     total cpu time spent up to now is        6.1 secs

     Computing kpt #:   115  of   141
     total cpu time spent up to now is        6.1 secs

     Computing kpt #:   116  of   141
     total cpu time spent up to now is        6.2 secs

     Computing kpt #:   117  of   141
     total cpu time spent up to now is        6.2 secs

     Computing kpt #:   118  of   141
     total cpu time spent up to now is        6.3 secs

     Computing kpt #:   119  of   141
     total cpu time spent up to now is        6.3 secs

     Computing kpt #:   120  of   141
     total cpu time spent up to now is        6.4 secs

     Computing kpt #:   121  of   141
     total cpu time spent up to now is        6.4 secs

     Computing kpt #:   122  of   141
     total cpu time spent up to now is        6.5 secs

     Computing kpt #:   123  of   141
     total cpu time spent up to now is        6.5 secs

     Computing kpt #:   124  of   141
     total cpu time spent up to now is        6.6 secs

     Computing kpt #:   125  of   141
     total cpu time spent up to now is        6.6 secs

     Computing kpt #:   126  of   141
     total cpu time spent up to now is        6.6 secs

     Computing kpt #:   127  of   141
     total cpu time spent up to now is        6.7 secs

     Computing kpt #:   128  of   141
     total cpu time spent up to now is        6.7 secs

     Computing kpt #:   129  of   141
     total cpu time spent up to now is        6.8 secs

     Computing kpt #:   130  of   141
     total cpu time spent up to now is        6.8 secs

     Computing kpt #:   131  of   141
     total cpu time spent up to now is        6.9 secs

     Computing kpt #:   132  of   141
     total cpu time spent up to now is        6.9 secs

     Computing kpt #:   133  of   141
     total cpu time spent up to now is        7.0 secs

     Computing kpt #:   134  of   141
     total cpu time spent up to now is        7.0 secs

     Computing kpt #:   135  of   141
     total cpu time spent up to now is        7.1 secs

     Computing kpt #:   136  of   141
     total cpu time spent up to now is        7.1 secs

     Computing kpt #:   137  of   141
     total cpu time spent up to now is        7.2 secs

     Computing kpt #:   138  of   141
     total cpu time spent up to now is        7.2 secs

     Computing kpt #:   139  of   141
     total cpu time spent up to now is        7.2 secs

     Computing kpt #:   140  of   141
     total cpu time spent up to now is        7.3 secs

     Computing kpt #:   141  of   141
     total cpu time spent up to now is        7.3 secs

     ethr =  1.25E-08,  avg # of iterations = 31.9

     total cpu time spent up to now is        7.3 secs

     End of band structure calculation

          k = 0.3750 0.3750 0.7500 (   349 PWs)   bands (ev):

    -2.8631  -0.4508   3.1828   4.6500   8.4714  10.9207  11.1922  13.6381
    15.4747  15.7225  18.0598  19.7959  20.5741  22.2546  24.9478  26.0646

          k = 0.3672 0.3672 0.7344 (   349 PWs)   bands (ev):

    -2.8849  -0.4488   3.2613   4.6409   8.4683  10.8613  11.1700  13.4978
    15.6100  15.9682  18.0735  19.5236  20.3339  22.3778  25.2983  25.8019

          k = 0.3594 0.3594 0.7188 (   345 PWs)   bands (ev):

    -2.9197  -0.4286   3.3419   4.6348   8.4682  10.8037  11.1520  13.3615
    15.7266  16.2169  18.1113  19.2577  20.0956  22.4968  25.4892  25.7086

          k = 0.3516 0.3516 0.7031 (   345 PWs)   bands (ev):

    -2.9667  -0.3910   3.4242   4.6309   8.4711  10.7470  11.1321  13.2280
    15.8200  16.4674  18.1720  18.9957  19.8584  22.6081  25.2489  26.0470

          k = 0.3438 0.3438 0.6875 (   345 PWs)   bands (ev):

    -3.0245  -0.3373   3.5083   4.6297   8.4769  10.6918  11.1133  13.0984
    15.8917  16.7177  18.2518  18.7412  19.6285  22.7090  24.9959  25.9636

          k = 0.3359 0.3359 0.6719 (   347 PWs)   bands (ev):

    -3.0916  -0.2688   3.5937   4.6310   8.4861  10.6385  11.0945  12.9721
    15.9447  16.9589  18.3406  18.4963  19.4158  22.7926  24.7636  25.7450

          k = 0.3281 0.3281 0.6562 (   343 PWs)   bands (ev):

    -3.1660  -0.1870   3.6805   4.6354   8.4975  10.5861  11.0780  12.8526
    15.9789  17.1988  18.2759  18.4120  19.2438  22.8585  24.5538  25.5180

          k = 0.3203 0.3203 0.6406 (   341 PWs)   bands (ev):

    -3.2467  -0.0935   3.7688   4.6422   8.5116  10.5362  11.0641  12.7362
    15.9984  17.3816  18.1108  18.4152  19.1558  22.8798  24.3850  25.2814

          k = 0.3125 0.3125 0.6250 (   341 PWs)   bands (ev):

    -3.3321   0.0102   3.8577   4.6517   8.5278  10.4866  11.0494  12.6245
    16.0066  17.4224  18.0943  18.3116  19.1881  22.8486  24.2682  25.0407

          k = 0.3047 0.3047 0.6094 (   341 PWs)   bands (ev):

    -3.4209   0.1230   3.9474   4.6638   8.5461  10.4385  11.0355  12.5181
    16.0064  17.2971  18.1327  18.2507  19.3051  22.7590  24.2143  24.7994

          k = 0.2969 0.2969 0.5938 (   341 PWs)   bands (ev):

    -3.5122   0.2441   4.0378   4.6788   8.5663  10.3918  11.0222  12.4172
    16.0002  17.1047  17.9204  18.4806  19.4604  22.6200  24.2155  24.5598

          k = 0.2891 0.2891 0.5781 (   341 PWs)   bands (ev):

    -3.6050   0.3724   4.1287   4.6964   8.5882  10.3464  11.0091  12.3224
    15.9897  16.8943  17.6944  18.7344  19.6283  22.4509  24.2542  24.3237

          k = 0.2812 0.2812 0.5625 (   339 PWs)   bands (ev):

    -3.6986   0.5075   4.2200   4.7168   8.6115  10.3024  10.9961  12.2340
    15.9768  16.6815  17.4638  19.0014  19.7931  22.2742  24.0932  24.3130

          k = 0.2734 0.2734 0.5469 (   339 PWs)   bands (ev):

    -3.7924   0.6483   4.3115   4.7399   8.6357  10.2594  10.9828  12.1525
    15.9600  16.4693  17.2322  19.2660  19.9398  22.1064  23.8702  24.3715

          k = 0.2656 0.2656 0.5312 (   339 PWs)   bands (ev):

    -3.8860   0.7946   4.4031   4.7656   8.6606  10.2174  10.9689  12.0783
    15.9395  16.2614  17.0034  19.5285  20.0508  21.9692  23.6573  24.4108

          k = 0.2578 0.2578 0.5156 (   339 PWs)   bands (ev):

    -3.9788   0.9459   4.4947   4.7941   8.6859  10.1763  10.9541  12.0119
    15.9131  16.0591  16.7815  19.7847  20.1057  21.8836  23.4581  24.4054

          k = 0.2500 0.2500 0.5000 (   343 PWs)   bands (ev):

    -4.0709   1.1018   4.5859   4.8251   8.7104  10.1358  10.9372  11.9530
    15.8571  15.8747  16.5729  20.0248  20.0889  21.8577  23.2772  24.3355

          k = 0.2422 0.2422 0.4844 (   336 PWs)   bands (ev):

    -4.1611   1.2624   4.6775   4.8589   8.7361  10.0960  10.9197  11.9056
    15.6735  15.8149  16.3917  20.0020  20.2526  21.9084  23.1257  24.2215

          k = 0.2344 0.2344 0.4688 (   336 PWs)   bands (ev):

    -4.2498   1.4266   4.7680   4.8953   8.7603  10.0562  10.8991  11.8657
    15.4934  15.7127  16.2538  19.8583  20.4485  21.9876  23.0072  24.0811

          k = 0.2266 0.2266 0.4531 (   336 PWs)   bands (ev):

    -4.3367   1.5947   4.8579   4.9343   8.7835  10.0165  10.8757  11.8354
    15.3222  15.5619  16.1684  19.6774  20.6015  22.0739  22.9385  23.9542

          k = 0.2188 0.2188 0.4375 (   336 PWs)   bands (ev):

    -4.4216   1.7662   4.9471   4.9759   8.8055   9.9766  10.8487  11.8148
    15.1603  15.3756  16.1224  19.4743  20.6977  22.1342  22.9333  23.8707

          k = 0.2109 0.2109 0.4219 (   336 PWs)   bands (ev):

    -4.5043   1.9411   5.0200   5.0353   8.8262   9.9364  10.8178  11.8040
    15.0085  15.1709  16.0989  19.2592  20.7294  22.1399  22.9995  23.8554

          k = 0.2031 0.2031 0.4062 (   338 PWs)   bands (ev):

    -4.5847   2.1190   5.0663   5.1224   8.8452   9.8957  10.7807  11.8017
    14.8644  14.9576  16.0875  19.0387  20.6961  22.0781  23.1327  23.9175

          k = 0.1953 0.1953 0.3906 (   341 PWs)   bands (ev):

    -4.6626   2.2999   5.1152   5.2084   8.8625   9.8533  10.7401  11.8081
    14.7295  14.7424  16.0822  18.8175  20.6159  21.9539  23.3216  24.0470

          k = 0.1875 0.1875 0.3750 (   339 PWs)   bands (ev):

    -4.7380   2.4836   5.1665   5.2929   8.8787   9.8121  10.6948  11.8240
    14.5282  14.6133  16.0805  18.6003  20.5054  21.7906  23.5547  24.2253

          k = 0.1797 0.1797 0.3594 (   339 PWs)   bands (ev):

    -4.8107   2.6698   5.2200   5.3759   8.8934   9.7704  10.6430  11.8462
    14.3172  14.5069  16.0790  18.3896  20.3691  21.5997  23.8158  24.4315

          k = 0.1719 0.1719 0.3438 (   339 PWs)   bands (ev):

    -4.8808   2.8583   5.2757   5.4571   8.9068   9.7287  10.5852  11.8731
    14.1120  14.4126  16.0753  18.1888  20.2187  21.3929  24.0976  24.6463

          k = 0.1641 0.1641 0.3281 (   337 PWs)   bands (ev):

    -4.9480   3.0490   5.3335   5.5365   8.9191   9.6877  10.5216  11.9017
    13.9155  14.3345  16.0665  18.0014  20.0614  21.1771  24.3945  24.8387

          k = 0.1562 0.1562 0.3125 (   337 PWs)   bands (ev):

    -5.0125   3.2416   5.3931   5.6137   8.9304   9.6463  10.4520  11.9278
    13.7315  14.2642  16.0494  17.8312  19.8986  20.9566  24.7019  24.9342

          k = 0.1484 0.1484 0.2969 (   337 PWs)   bands (ev):

    -5.0740   3.4360   5.4546   5.6886   8.9399   9.6053  10.3768  11.9469
    13.5663  14.2054  16.0204  17.6804  19.7337  20.7347  24.8622  25.0168

          k = 0.1406 0.1406 0.2812 (   335 PWs)   bands (ev):

    -5.1326   3.6318   5.5177   5.7611   8.9499   9.5656  10.2970  11.9488
    13.4277  14.1589  15.9761  17.5568  19.5702  20.5137  24.6988  25.3383

          k = 0.1328 0.1328 0.2656 (   340 PWs)   bands (ev):

    -5.1883   3.8285   5.5821   5.8309   8.9576   9.5260  10.2109  11.9226
    13.3183  14.1180  15.9136  17.4594  19.4067  20.2871  24.4962  25.6633

          k = 0.1250 0.1250 0.2500 (   336 PWs)   bands (ev):

    -5.2408   4.0261   5.6485   5.8983   8.9662   9.4884  10.1225  11.8677
    13.2550  14.0913  15.8329  17.3929  19.2509  20.0711  24.2815  25.9974

          k = 0.1172 0.1172 0.2344 (   336 PWs)   bands (ev):

    -5.2904   4.2241   5.7152   5.9622   8.9744   9.4520  10.0307  11.7768
    13.2322  14.0733  15.7358  17.3535  19.0962  19.8555  24.0622  26.3273

          k = 0.1094 0.1094 0.2188 (   333 PWs)   bands (ev):

    -5.3368   4.4226   5.7826   6.0231   8.9823   9.4173   9.9371  11.6558
    13.2490  14.0650  15.6261  17.3387  18.9466  19.6452  23.8438  26.6640

          k = 0.1016 0.1016 0.2031 (   334 PWs)   bands (ev):

    -5.3802   4.6199   5.8502   6.0803   8.9892   9.3836   9.8419  11.5121
    13.2917  14.0622  15.5077  17.3423  18.8024  19.4368  23.6289  26.9935

          k = 0.0938 0.0938 0.1875 (   334 PWs)   bands (ev):

    -5.4204   4.8160   5.9176   6.1340   8.9956   9.3517   9.7465  11.3541
    13.3581  14.0656  15.3856  17.3610  18.6647  19.2358  23.4203  27.3206

          k = 0.0859 0.0859 0.1719 (   334 PWs)   bands (ev):

    -5.4575   5.0101   5.9845   6.1839   9.0012   9.3212   9.6520  11.1885
    13.4392  14.0742  15.2633  17.3910  18.5340  19.0413  23.2197  27.6436

          k = 0.0781 0.0781 0.1562 (   334 PWs)   bands (ev):

    -5.4914   5.2011   6.0501   6.2299   9.0057   9.2917   9.5593  11.0206
    13.5298  14.0869  15.1440  17.4290  18.4110  18.8545  23.0288  27.9605

          k = 0.0703 0.0703 0.1406 (   334 PWs)   bands (ev):

    -5.5222   5.3879   6.1139   6.2719   9.0091   9.2627   9.4698  10.8549
    13.6258  14.1026  15.0301  17.4723  18.2966  18.6763  22.8492  28.2685

          k = 0.0625 0.0625 0.1250 (   334 PWs)   bands (ev):

    -5.5497   5.5689   6.1750   6.3097   9.0112   9.2335   9.3845  10.6953
    13.7237  14.1204  14.9236  17.5185  18.1913  18.5084  22.6824  28.5644

          k = 0.0547 0.0547 0.1094 (   334 PWs)   bands (ev):

    -5.5741   5.7422   6.2327   6.3432   9.0122   9.2032   9.3046  10.5457
    13.8205  14.1392  14.8262  17.5654  18.0959  18.3521  22.5299  28.8438

          k = 0.0469 0.0469 0.0938 (   334 PWs)   bands (ev):

    -5.5952   5.9052   6.2859   6.3725   9.0122   9.1709   9.2316  10.4098
    13.9132  14.1581  14.7393  17.6111  18.0113  18.2095  22.3932  29.1012

          k = 0.0391 0.0391 0.0781 (   334 PWs)   bands (ev):

    -5.6130   6.0549   6.3336   6.3973   9.0115   9.1364   9.1667  10.2909
    13.9989  14.1759  14.6639  17.6537  17.9380  18.0826  22.2740  29.3300

          k = 0.0312 0.0312 0.0625 (   332 PWs)   bands (ev):

    -5.6276   6.1876   6.3760   6.4180   9.0102   9.1003   9.1112  10.1921
    14.0746  14.1920  14.6010  17.6920  17.8796  17.9748  22.1737  29.5248

          k = 0.0234 0.0234 0.0469 (   332 PWs)   bands (ev):

    -5.6390   6.2984   6.4094   6.4339   9.0089   9.0652   9.0664  10.1152
    14.1374  14.2054  14.5513  17.7233  17.8314  17.8867  22.0939  29.6722

          k = 0.0156 0.0156 0.0312 (   331 PWs)   bands (ev):

    -5.6470   6.3835   6.4341   6.4452   9.0077   9.0335   9.0348  10.0607
    14.1845  14.2154  14.5154  17.7488  17.7964  17.8217  22.0358  29.7950

          k = 0.0078 0.0078 0.0156 (   331 PWs)   bands (ev):

    -5.6519   6.4363   6.4492   6.4521   9.0069   9.0134   9.0140  10.0285
    14.2139  14.2217  14.4936  17.7633  17.7753  17.7817  22.0006  29.8645

          k = 0.0000 0.0000 0.0000 (   331 PWs)   bands (ev):

    -5.6536   6.4543   6.4543   6.4543   9.0066   9.0066   9.0066  10.0178
    14.2238  14.2238  14.4864  17.7682  17.7682  17.7682  21.9887  29.8881

          k = 0.0128 0.0128 0.0128 (   331 PWs)   bands (ev):

    -5.6514   6.4280   6.4504   6.4504   9.0123   9.0123   9.0146  10.0322
    14.2157  14.2157  14.4961  17.7589  17.7834  17.7834  22.0046  29.8594

          k = 0.0256 0.0256 0.0256 (   332 PWs)   bands (ev):

    -5.6448   6.3507   6.4388   6.4388   9.0292   9.0292   9.0352  10.0763
    14.1919  14.1919  14.5253  17.7294  17.8285  17.8285  22.0519  29.7619

          k = 0.0385 0.0385 0.0385 (   332 PWs)   bands (ev):

    -5.6339   6.2311   6.4199   6.4199   9.0568   9.0568   9.0602  10.1520
    14.1539  14.1539  14.5735  17.6854  17.9020  17.9020  22.1290  29.6331

          k = 0.0513 0.0513 0.0513 (   332 PWs)   bands (ev):

    -5.6186   6.0766   6.3942   6.3942   9.0806   9.0943   9.0943  10.2600
    14.1041  14.1041  14.6397  17.6274  18.0019  18.0019  22.2339  29.4676

          k = 0.0641 0.0641 0.0641 (   332 PWs)   bands (ev):

    -5.5989   5.8953   6.3625   6.3625   9.0908   9.1407   9.1407  10.3984
    14.0451  14.0451  14.7230  17.5586  18.1255  18.1255  22.3638  29.2742

          k = 0.0769 0.0769 0.0769 (   335 PWs)   bands (ev):

    -5.5750   5.6938   6.3244   6.3244   9.0888   9.1948   9.1948  10.5629
    13.9796  13.9796  14.8215  17.4816  18.2678  18.2678  22.5161  29.0158

          k = 0.0897 0.0897 0.0897 (   335 PWs)   bands (ev):

    -5.5466   5.4779   6.2834   6.2834   9.0754   9.2552   9.2552  10.7481
    13.9109  13.9109  14.9333  17.4021  18.4314  18.4314  22.6879  28.7211

          k = 0.1026 0.1026 0.1026 (   335 PWs)   bands (ev):

    -5.5139   5.2515   6.2388   6.2388   9.0523   9.3206   9.3206  10.9488
    13.8416  13.8416  15.0554  17.3237  18.6113  18.6113  22.8766  28.4039

          k = 0.1154 0.1154 0.1154 (   335 PWs)   bands (ev):

    -5.4770   5.0175   6.1916   6.1916   9.0215   9.3895   9.3895  11.1608
    13.7742  13.7742  15.1837  17.2517  18.8056  18.8056  23.0795  28.0711

          k = 0.1282 0.1282 0.1282 (   335 PWs)   bands (ev):

    -5.4357   4.7784   6.1424   6.1424   8.9847   9.4604   9.4604  11.3806
    13.7112  13.7112  15.3127  17.1927  19.0122  19.0122  23.2941  27.7280

          k = 0.1410 0.1410 0.1410 (   335 PWs)   bands (ev):

    -5.3903   4.5358   6.0920   6.0920   8.9434   9.5318   9.5318  11.6056
    13.6547  13.6547  15.4347  17.1551  19.2295  19.2295  23.5177  27.3785

          k = 0.1538 0.1538 0.1538 (   335 PWs)   bands (ev):

    -5.3406   4.2912   6.0408   6.0408   8.8988   9.6021   9.6021  11.8338
    13.6068  13.6068  15.5401  17.1490  19.4561  19.4561  23.7471  27.0255

          k = 0.1667 0.1667 0.1667 (   338 PWs)   bands (ev):

    -5.2870   4.0448   5.9893   5.9893   8.8516   9.6696   9.6696  12.0637
    13.5678  13.5678  15.6183  17.1841  19.6903  19.6903  23.9778  26.6652

          k = 0.1795 0.1795 0.1795 (   335 PWs)   bands (ev):

    -5.2291   3.7992   5.9380   5.9380   8.8046   9.7334   9.7334  12.2945
    13.5460  13.5460  15.6638  17.2690  19.9331  19.9331  24.2051  26.3127

          k = 0.1923 0.1923 0.1923 (   335 PWs)   bands (ev):

    -5.1672   3.5543   5.8874   5.8874   8.7554   9.7919   9.7919  12.5243
    13.5347  13.5347  15.6754  17.4028  20.1780  20.1780  24.4190  25.9635

          k = 0.2051 0.2051 0.2051 (   338 PWs)   bands (ev):

    -5.1014   3.3109   5.8368   5.8368   8.7086   9.8435   9.8435  12.7541
    13.5367  13.5367  15.6598  17.5830  20.4203  20.4203  24.6112  25.6131

          k = 0.2179 0.2179 0.2179 (   338 PWs)   bands (ev):

    -5.0316   3.0692   5.7881   5.7881   8.6594   9.8881   9.8881  12.9797
    13.5573  13.5573  15.6253  17.7945  20.6664  20.6664  24.7473  25.2791

          k = 0.2308 0.2308 0.2308 (   338 PWs)   bands (ev):

    -4.9582   2.8297   5.7408   5.7408   8.6108   9.9247   9.9247  13.2015
    13.5950  13.5950  15.5805  18.0325  20.9079  20.9079  24.8054  24.9583

          k = 0.2436 0.2436 0.2436 (   344 PWs)   bands (ev):

    -4.8810   2.5927   5.6948   5.6948   8.5622   9.9524   9.9524  13.4175
    13.6451  13.6451  15.5324  18.2904  21.1356  21.1356  24.6562  24.6562

          k = 0.2564 0.2564 0.2564 (   344 PWs)   bands (ev):

    -4.8003   2.3591   5.6507   5.6507   8.5159   9.9725   9.9725  13.6253
    13.7179  13.7179  15.4878  18.5631  21.3455  21.3455  24.3840  24.3840

          k = 0.2692 0.2692 0.2692 (   338 PWs)   bands (ev):

    -4.7163   2.1290   5.6085   5.6085   8.4711   9.9862   9.9862  13.8146
    13.8146  13.8209  15.4534  18.8463  21.5252  21.5252  24.1578  24.1578

          k = 0.2821 0.2821 0.2821 (   344 PWs)   bands (ev):

    -4.6291   1.9027   5.5678   5.5678   8.4280   9.9904   9.9904  13.9159
    13.9159  13.9983  15.4368  19.1354  21.6384  21.6384  23.9915  23.9915

          k = 0.2949 0.2949 0.2949 (   344 PWs)   bands (ev):

    -4.5389   1.6808   5.5295   5.5295   8.3867   9.9889   9.9889  14.0384
    14.0384  14.1501  15.4474  19.4264  21.6710  21.6710  23.9227  23.9227

          k = 0.3077 0.3077 0.3077 (   344 PWs)   bands (ev):

    -4.4460   1.4636   5.4933   5.4933   8.3475   9.9819   9.9819  14.1759
    14.1759  14.2676  15.4946  19.7137  21.6085  21.6085  23.9010  23.9577

          k = 0.3205 0.3205 0.3205 (   344 PWs)   bands (ev):

    -4.3507   1.2515   5.4593   5.4593   8.3104   9.9705   9.9705  14.3272
    14.3272  14.3459  15.5840  19.9905  21.4614  21.4614  23.7124  24.0858

          k = 0.3333 0.3333 0.3333 (   344 PWs)   bands (ev):

    -4.2534   1.0450   5.4274   5.4274   8.2756   9.9557   9.9557  14.3874
    14.4914  14.4914  15.7138  20.2468  21.2535  21.2535  23.5483  24.2832

          k = 0.3462 0.3462 0.3462 (   344 PWs)   bands (ev):

    -4.1546   0.8448   5.3979   5.3979   8.2430   9.9385   9.9385  14.4004
    14.6674  14.6674  15.8758  20.4688  21.0072  21.0072  23.4238  24.5275

          k = 0.3590 0.3590 0.3590 (   344 PWs)   bands (ev):

    -4.0548   0.6515   5.3706   5.3706   8.2129   9.9196   9.9196  14.3944
    14.8544  14.8544  16.0607  20.6390  20.7379  20.7379  23.3575  24.8029

          k = 0.3718 0.3718 0.3718 (   344 PWs)   bands (ev):

    -3.9549   0.4659   5.3456   5.3456   8.1853   9.9001   9.9001  14.3771
    15.0512  15.0512  16.2607  20.4557  20.4557  20.7401  23.3674  25.0995

          k = 0.3846 0.3846 0.3846 (   350 PWs)   bands (ev):

    -3.8561   0.2882   5.3229   5.3229   8.1598   9.8804   9.8804  14.3521
    15.2556  15.2556  16.4686  20.1583  20.1583  20.7631  23.4524  25.4107

          k = 0.3974 0.3974 0.3974 (   344 PWs)   bands (ev):

    -3.7585   0.1212   5.3031   5.3031   8.1372   9.8620   9.8620  14.3262
    15.4810  15.4810  16.6832  19.8717  19.8717  20.7143  23.6289  25.7347

          k = 0.4103 0.4103 0.4103 (   347 PWs)   bands (ev):

    -3.6644  -0.0346   5.2852   5.2852   8.1169   9.8419   9.8419  14.3003
    15.7017  15.7017  16.8989  19.5777  19.5777  20.6092  23.8668  26.0641

          k = 0.4231 0.4231 0.4231 (   347 PWs)   bands (ev):

    -3.5751  -0.1772   5.2697   5.2697   8.0996   9.8254   9.8254  14.2759
    15.9295  15.9295  17.1132  19.2872  19.2872  20.4675  24.1570  26.3994

          k = 0.4359 0.4359 0.4359 (   341 PWs)   bands (ev):

    -3.4922  -0.3047   5.2567   5.2567   8.0852   9.8110   9.8110  14.2546
    16.1653  16.1653  17.3223  19.0080  19.0080  20.3057  24.4837  26.7390

          k = 0.4487 0.4487 0.4487 (   341 PWs)   bands (ev):

    -3.4193  -0.4147   5.2459   5.2459   8.0731   9.7987   9.7987  14.2359
    16.4008  16.4008  17.5200  18.7277  18.7277  20.1378  24.8314  27.0794

          k = 0.4615 0.4615 0.4615 (   341 PWs)   bands (ev):

    -3.3585  -0.5043   5.2376   5.2376   8.0638   9.7889   9.7889  14.2210
    16.6352  16.6352  17.6989  18.4583  18.4583  19.9777  25.1947  27.4194

          k = 0.4744 0.4744 0.4744 (   344 PWs)   bands (ev):

    -3.3125  -0.5709   5.2316   5.2316   8.0546   9.7817   9.7817  14.2099
    16.8593  16.8593  17.8448  18.2080  18.2080  19.8406  25.5495  27.2546

          k = 0.4872 0.4872 0.4872 (   344 PWs)   bands (ev):

    -3.2838  -0.6121   5.2280   5.2280   8.0505   9.7774   9.7774  14.2032
    17.0478  17.0478  17.9456  18.0045  18.0045  19.7457  25.9061  26.8771

          k = 0.5000 0.5000 0.5000 (   344 PWs)   bands (ev):

    -3.2740  -0.6260   5.2268   5.2268   8.0492   9.7760   9.7760  14.2010
    17.1320  17.1320  17.9152  17.9152  17.9818  19.7114  26.1213  26.6550

          k = 0.5000 0.4919 0.5081 (   344 PWs)   bands (ev):

    -3.2734  -0.6257   5.2212   5.2257   8.0543   9.7749   9.7782  14.2038
    17.1090  17.1249  17.9196  17.9214  18.0000  19.7159  26.1206  26.6536

          k = 0.5000 0.4839 0.5161 (   344 PWs)   bands (ev):

    -3.2717  -0.6247   5.2046   5.2224   8.0696   9.7718   9.7851  14.2121
    17.0466  17.1041  17.9295  17.9321  18.0582  19.7294  26.1185  26.6494

          k = 0.5000 0.4758 0.5242 (   344 PWs)   bands (ev):

    -3.2688  -0.6231   5.1774   5.2168   8.0946   9.7667   9.7967  14.2257
    16.9577  17.0714  17.9347  17.9514  18.1485  19.7518  26.1148  26.6423

          k = 0.5000 0.4677 0.5323 (   344 PWs)   bands (ev):

    -3.2648  -0.6209   5.1403   5.2091   8.1284   9.7598   9.8130  14.2445
    16.8529  17.0288  17.9389  17.9758  18.2583  19.7827  26.1096  26.6321

          k = 0.5000 0.4597 0.5403 (   344 PWs)   bands (ev):

    -3.2596  -0.6180   5.0941   5.1991   8.1700   9.7511   9.8343  14.2681
    16.7389  16.9787  17.9432  18.0034  18.3798  19.8219  26.1028  26.6187

          k = 0.5000 0.4516 0.5484 (   342 PWs)   bands (ev):

    -3.2532  -0.6145   5.0397   5.1870   8.2186   9.7428   9.8616  14.2960
    16.6198  16.9233  17.9481  18.0345  18.5096  19.8689  26.0981  26.6018

          k = 0.5000 0.4435 0.5565 (   342 PWs)   bands (ev):

    -3.2457  -0.6104   4.9781   5.1726   8.2725   9.7311   9.8935  14.3279
    16.4973  16.8639  17.9534  18.0649  18.6437  19.9231  26.0878  26.5810

          k = 0.5000 0.4355 0.5645 (   342 PWs)   bands (ev):

    -3.2371  -0.6057   4.9103   5.1560   8.3306   9.7182   9.9312  14.3629
    16.3730  16.8023  17.9595  18.0955  18.7815  19.9842  26.0756  26.5562

          k = 0.5000 0.4274 0.5726 (   342 PWs)   bands (ev):

    -3.2272  -0.6004   4.8372   5.1373   8.3918   9.7043   9.9748  14.4004
    16.2477  16.7401  17.9663  18.1259  18.9222  20.0515  26.0613  26.5270

          k = 0.5000 0.4194 0.5806 (   342 PWs)   bands (ev):

    -3.2163  -0.5946   4.7596   5.1164   8.4551   9.6897  10.0248  14.4394
    16.1220  16.6785  17.9738  18.1559  19.0650  20.1245  26.0448  26.4932

          k = 0.5000 0.4113 0.5887 (   344 PWs)   bands (ev):

    -3.2043  -0.5883   4.6780   5.0931   8.5193   9.6747  10.0812  14.4788
    15.9906  16.6167  17.9821  18.1853  19.2061  20.2024  26.0259  26.4543

          k = 0.5000 0.4032 0.5968 (   344 PWs)   bands (ev):

    -3.1910  -0.5814   4.5936   5.0678   8.5836   9.6595  10.1445  14.5175
    15.8652  16.5608  17.9911  18.2144  19.3520  20.2850  26.0047  26.4107

          k = 0.5000 0.3952 0.6048 (   344 PWs)   bands (ev):

    -3.1766  -0.5741   4.5067   5.0404   8.6473   9.6443  10.2147  14.5541
    15.7402  16.5099  18.0009  18.2433  19.4993  20.3717  25.9809  26.3621

          k = 0.5000 0.3871 0.6129 (   348 PWs)   bands (ev):

    -3.1614  -0.5663   4.4175   5.0108   8.7097   9.6292  10.2917  14.5865
    15.6077  16.4629  18.0111  18.2710  19.6416  20.4618  25.9542  26.3080

          k = 0.5000 0.3790 0.6210 (   348 PWs)   bands (ev):

    -3.1447  -0.5581   4.3273   4.9793   8.7706   9.6148  10.3758  14.6139
    15.4841  16.4268  18.0223  18.2999  19.7908  20.5552  25.9250  26.2499

          k = 0.5000 0.3710 0.6290 (   348 PWs)   bands (ev):

    -3.1269  -0.5496   4.2360   4.9457   8.8297   9.6011  10.4667  14.6343
    15.3612  16.4005  18.0343  18.3290  19.9408  20.6514  25.8930  26.1874

          k = 0.5000 0.3629 0.6371 (   348 PWs)   bands (ev):

    -3.1080  -0.5407   4.1440   4.9101   8.8867   9.5882  10.5642  14.6459
    15.2391  16.3853  18.0470  18.3587  20.0917  20.7500  25.8583  26.1205

          k = 0.5000 0.3548 0.6452 (   348 PWs)   bands (ev):

    -3.0880  -0.5316   4.0517   4.8726   8.9418   9.5764  10.6680  14.6478
    15.1179  16.3823  18.0605  18.3892  20.2432  20.8506  25.8209  26.0497

          k = 0.5000 0.3468 0.6532 (   348 PWs)   bands (ev):

    -3.0668  -0.5222   3.9593   4.8331   8.9950   9.5658  10.7778  14.6390
    14.9976  16.3920  18.0746  18.4207  20.3954  20.9530  25.7808  25.9752

          k = 0.5000 0.3387 0.6613 (   346 PWs)   bands (ev):

    -3.0446  -0.5127   3.8673   4.7918   9.0476   9.5566  10.8936  14.6195
    14.8784  16.4144  18.0896  18.4540  20.5507  21.0575  25.7466  25.8979

          k = 0.5000 0.3306 0.6694 (   344 PWs)   bands (ev):

    -3.0211  -0.5031   3.7756   4.7488   9.0975   9.5497  11.0130  14.5897
    14.7624  16.4506  18.1052  18.4888  20.7083  21.1631  25.6959  25.8217

          k = 0.5000 0.3226 0.6774 (   346 PWs)   bands (ev):

    -2.9968  -0.4935   3.6846   4.7040   9.1458   9.5435  11.1383  14.5498
    14.6444  16.4915  18.1211  18.5241  20.8611  21.2692  25.6483  25.7364

          k = 0.5000 0.3145 0.6855 (   346 PWs)   bands (ev):

    -2.9712  -0.4839   3.5946   4.6575   9.1931   9.5391  11.2681  14.5014
    14.5281  16.5462  18.1381  18.5625  21.0150  21.3763  25.5988  25.6484

          k = 0.5000 0.3065 0.6935 (   346 PWs)   bands (ev):

    -2.9445  -0.4744   3.5058   4.6095   9.2395   9.5365  11.4019  14.4128
    14.4456  16.6087  18.1557  18.6033  21.1690  21.4840  25.5474  25.5569

          k = 0.5000 0.2984 0.7016 (   346 PWs)   bands (ev):

    -2.9167  -0.4652   3.4183   4.5600   9.2852   9.5357  11.5394  14.2986
    14.3834  16.6774  18.1740  18.6470  21.3231  21.5921  25.4618  25.4944

          k = 0.5000 0.2903 0.7097 (   346 PWs)   bands (ev):

    -2.8879  -0.4564   3.3324   4.5091   9.3303   9.5368  11.6803  14.1856
    14.3161  16.7509  18.1930  18.6941  21.4773  21.7005  25.3627  25.4401

          k = 0.5000 0.2823 0.7177 (   346 PWs)   bands (ev):

    -2.8579  -0.4480   3.2483   4.4569   9.3745   9.5400  11.8244  14.0733
    14.2442  16.8272  18.2126  18.7457  21.6311  21.8086  25.2593  25.3854

          k = 0.5000 0.2742 0.7258 (   346 PWs)   bands (ev):

    -2.8270  -0.4401   3.1661   4.4035   9.4191   9.5451  11.9712  13.9626
    14.1690  16.9058  18.2329  18.8006  21.7850  21.9170  25.1515  25.3292

          k = 0.5000 0.2661 0.7339 (   346 PWs)   bands (ev):

    -2.7949  -0.4330   3.0860   4.3488   9.4637   9.5521  12.1207  13.8530
    14.0910  16.9850  18.2539  18.8601  21.9385  22.0252  25.0384  25.2722

          k = 0.5000 0.2581 0.7419 (   346 PWs)   bands (ev):

    -2.7618  -0.4267   3.0082   4.2932   9.5083   9.5612  12.2725  13.7446
    14.0107  17.0637  18.2755  18.9248  22.0915  22.1330  24.9199  25.2149

          k = 0.5000 0.2500 0.7500 (   346 PWs)   bands (ev):

    -2.7277  -0.4213   2.9329   4.2366   9.5531   9.5723  12.4264  13.6375
    13.9287  17.1409  18.2977  18.9949  22.2402  22.2439  24.7955  25.1574

          k = 0.5000 0.2386 0.7386 (   346 PWs)   bands (ev):

    -2.7311  -0.4163   2.9296   4.2408   9.4842   9.6443  12.4245  13.6128
    13.9560  17.1010  18.2994  19.0375  22.1500  22.3317  24.6873  25.2489

          k = 0.5000 0.2273 0.7273 (   346 PWs)   bands (ev):

    -2.7413  -0.4012   2.9200   4.2532   9.4100   9.7282  12.4190  13.5555
    14.0210  16.9905  18.3057  19.1551  22.0563  22.4180  24.4849  25.3976

          k = 0.5000 0.2159 0.7159 (   347 PWs)   bands (ev):

    -2.7578  -0.3765   2.9044   4.2732   9.3392   9.8152  12.4095  13.4862
    14.1027  16.8278  18.3191  19.3253  21.9581  22.4979  24.2646  25.5184

          k = 0.5000 0.2045 0.7045 (   347 PWs)   bands (ev):

    -2.7803  -0.3425   2.8835   4.3003   9.2720   9.9037  12.3966  13.4140
    14.1937  16.6323  18.3388  19.5317  21.8618  22.5731  24.0413  25.5903

          k = 0.5000 0.1932 0.6932 (   346 PWs)   bands (ev):

    -2.8082  -0.3001   2.8586   4.3336   9.2088   9.9963  12.3801  13.3411
    14.2904  16.4171  18.3649  19.7603  21.7645  22.6338  23.8285  25.6166

          k = 0.5000 0.1818 0.6818 (   346 PWs)   bands (ev):

    -2.8410  -0.2498   2.8302   4.3721   9.1497  10.0907  12.3600  13.2697
    14.3902  16.1896  18.3972  20.0022  21.6660  22.6680  23.6387  25.6034

          k = 0.5000 0.1705 0.6705 (   347 PWs)   bands (ev):

    -2.8779  -0.1926   2.7993   4.4148   9.0948  10.1872  12.3363  13.2002
    14.4924  15.9549  18.4356  20.2509  21.5666  22.6572  23.4917  25.5556

          k = 0.5000 0.1591 0.6591 (   345 PWs)   bands (ev):

    -2.9180  -0.1291   2.7670   4.4608   9.0451  10.2864  12.3107  13.1342
    14.5972  15.7178  18.4815  20.5070  21.4653  22.5839  23.4120  25.4827

          k = 0.5000 0.1477 0.6477 (   345 PWs)   bands (ev):

    -2.9611  -0.0603   2.7340   4.5093   8.9994  10.3859  12.2805  13.0709
    14.7030  15.4793  18.5310  20.7607  21.3642  22.4495  23.3968  25.3854

          k = 0.5000 0.1364 0.6364 (   342 PWs)   bands (ev):

    -3.0062   0.0130   2.7012   4.5595   8.9592  10.4870  12.2479  13.0116
    14.8087  15.2449  18.5879  21.0061  21.2669  22.2822  23.4253  25.2700

          k = 0.5000 0.1250 0.6250 (   342 PWs)   bands (ev):

    -3.0531   0.0900   2.6692   4.6106   8.9234  10.5880  12.2117  12.9551
    14.8826  15.0435  18.6471  21.1413  21.2552  22.1136  23.4738  25.1360

          k = 0.5000 0.1136 0.6136 (   342 PWs)   bands (ev):

    -3.1011   0.1698   2.6390   4.6621   8.8928  10.6887  12.1728  12.9023
    14.7375  15.0651  18.7105  21.0456  21.4051  22.0026  23.5316  24.9916

          k = 0.5000 0.1023 0.6023 (   343 PWs)   bands (ev):

    -3.1499   0.2516   2.6111   4.7134   8.8675  10.7883  12.1307  12.8532
    14.5115  15.1703  18.7774  20.9379  21.3978  22.0514  23.5915  24.8420

          k = 0.5000 0.0909 0.5909 (   343 PWs)   bands (ev):

    -3.1991   0.3348   2.5864   4.7638   8.8482  10.8846  12.0866  12.8099
    14.2854  15.2831  18.8477  20.8286  21.2556  22.2361  23.6501  24.6940

          k = 0.5000 0.0795 0.5795 (   343 PWs)   bands (ev):

    -3.2483   0.4181   2.5656   4.8130   8.8345  10.9784  12.0402  12.7707
    14.0645  15.3984  18.9200  20.7151  21.0702  22.4623  23.6985  24.5496

          k = 0.5000 0.0682 0.5682 (   342 PWs)   bands (ev):

    -3.2973   0.5007   2.5498   4.8607   8.8267  11.0670  11.9912  12.7380
    13.8513  15.5156  18.9932  20.5985  20.8758  22.6993  23.7319  24.4177

          k = 0.5000 0.0568 0.5568 (   342 PWs)   bands (ev):

    -3.3458   0.5816   2.5396   4.9062   8.8249  11.1468  11.9395  12.7122
    13.6465  15.6327  19.0654  20.4784  20.6842  22.9301  23.7399  24.3057

          k = 0.5000 0.0455 0.5455 (   341 PWs)   bands (ev):

    -3.3936   0.6599   2.5361   4.9492   8.8294  11.2148  11.8853  12.6952
    13.4541  15.7499  19.1340  20.3557  20.5029  23.1512  23.7129  24.2249

          k = 0.5000 0.0341 0.5341 (   341 PWs)   bands (ev):

    -3.4406   0.7341   2.5403   4.9895   8.8397  11.2668  11.8275  12.6888
    13.2762  15.8665  19.1927  20.2291  20.3367  23.3493  23.6513  24.1763

          k = 0.5000 0.0227 0.5227 (   341 PWs)   bands (ev):

    -3.4865   0.8034   2.5531   5.0269   8.8561  11.2974  11.7674  12.6929
    13.1183  15.9820  19.2331  20.1034  20.1924  23.4769  23.6056  24.1529

          k = 0.5000 0.0114 0.5114 (   341 PWs)   bands (ev):

    -3.5312   0.8667   2.5754   5.0610   8.8785  11.2999  11.7074  12.7016
    12.9906  16.0955  19.2423  19.9793  20.0834  23.4133  23.6944  24.1520

          k = 0.5000 0.0000 0.5000 (   339 PWs)   bands (ev):

    -3.5746   0.9233   2.6079   5.0920   8.9068  11.2682  11.6523  12.6908
    12.9200  16.2064  19.2091  19.8484  20.0306  23.3040  23.7689  24.1852

     Writing output data file /burg/home/hqp2000/mcu/data/QE/si_band_dos/tmp/si.save/
 
     init_run     :      0.15s CPU      0.16s WALL (       1 calls)
     electrons    :      6.73s CPU      7.05s WALL (       1 calls)

     Called by init_run:
     wfcinit      :      0.00s CPU      0.00s WALL (       1 calls)
     wfcinit:atom :      0.00s CPU      0.00s WALL (     141 calls)
     wfcinit:wfcr :      0.21s CPU      0.23s WALL (     141 calls)
     potinit      :      0.10s CPU      0.10s WALL (       1 calls)
     hinit0       :      0.04s CPU      0.05s WALL (       1 calls)

     Called by electrons:
     c_bands      :      6.73s CPU      7.05s WALL (       1 calls)
     v_of_rho     :      0.00s CPU      0.00s WALL (       1 calls)
     v_h          :      0.00s CPU      0.00s WALL (       1 calls)
     v_xc         :      0.00s CPU      0.00s WALL (       1 calls)
     newd         :      0.00s CPU      0.00s WALL (       1 calls)
     PAW_pot      :      0.09s CPU      0.10s WALL (       1 calls)

     Called by c_bands:
     init_us_2    :      0.01s CPU      0.01s WALL (     141 calls)
     cegterg      :      5.95s CPU      6.19s WALL (     297 calls)

     Called by sum_band:

     Called by *egterg:
     cdiaghg      :      1.36s CPU      1.41s WALL (    4639 calls)
     cegterg:over :      0.14s CPU      0.15s WALL (    4498 calls)
     cegterg:upda :      0.06s CPU      0.06s WALL (    4498 calls)
     cegterg:last :      0.10s CPU      0.11s WALL (    2752 calls)
     h_psi        :      4.30s CPU      4.50s WALL (    4936 calls)
     s_psi        :      0.06s CPU      0.06s WALL (    4936 calls)
     g_psi        :      0.02s CPU      0.02s WALL (    4498 calls)

     Called by h_psi:
     h_psi:calbec :      0.12s CPU      0.13s WALL (    4936 calls)
     vloc_psi     :      4.08s CPU      4.26s WALL (    4936 calls)
     add_vuspsi   :      0.07s CPU      0.08s WALL (    4936 calls)

     General routines
     calbec       :      0.11s CPU      0.12s WALL (    4936 calls)
     fft          :      0.00s CPU      0.00s WALL (      12 calls)
     fftw         :      3.79s CPU      3.96s WALL (   90264 calls)
     davcio       :      0.01s CPU      0.02s WALL (     282 calls)
 
     Parallel routines
     fft_scatt_xy :      0.38s CPU      0.39s WALL (   90276 calls)
     fft_scatt_yz :      0.68s CPU      0.71s WALL (   90276 calls)

     PAW routines
     PAW_pot      :      0.09s CPU      0.10s WALL (       1 calls)
 
     PWSCF        :      7.13s CPU      8.25s WALL

 
   This run was terminated on:  13:17:23  14Jun2021            

=------------------------------------------------------------------------------=
   JOB DONE.
=------------------------------------------------------------------------------=
