MPI startup(): PMI server not found. Please set I_MPI_PMI_LIBRARY variable if it is not a singleton case.

     Program BANDS v.6.7MaX starts on 14Jun2021 at 13:17:24 

     This program is part of the open-source Quantum ESPRESSO suite
     for quantum simulation of materials; please cite
         "P. Giannozzi et al., J. Phys.:Condens. Matter 21 395502 (2009);
         "P. Giannozzi et al., J. Phys.:Condens. Matter 29 465901 (2017);
          URL http://www.quantum-espresso.org", 
     in publications or presentations arising from this work. More details at
     http://www.quantum-espresso.org/quote

     Parallel version (MPI), running on     1 processors

     MPI processes distributed on     1 nodes

     Reading xml data from directory:

     /burg/home/hqp2000/mcu/data/QE/si_band_dos/tmp/si.save/
     file Si.pbe-n-kjpaw_psl.1.0.0.UPF: wavefunction(s)  3S 3P renormalized

     IMPORTANT: XC functional enforced from input :
     Exchange-correlation= PBE
                           (   1   4   3   4   0   0   0)
     Any further DFT definition will be discarded
     Please, verify this is what you really want

 
     G-vector sticks info
     --------------------
     sticks:   dense  smooth     PW     G-vecs:    dense   smooth      PW
     Sum         253     253     85                 2733     2733     531
 

     Check: negative core charge=   -0.000023
     Reading collected, re-writing distributed wavefunctions
     high-symmetry point:  0.3750 0.3750 0.7500   x coordinate   0.0000
     high-symmetry point:  0.0000 0.0000 0.0000   x coordinate   0.9186
     high-symmetry point:  0.5000 0.5000 0.5000   x coordinate   1.7846
     high-symmetry point:  0.5000 0.2500 0.7500   x coordinate   2.1381
     high-symmetry point:  0.5000 0.0000 0.5000   x coordinate   2.4917

     Plottable bands (eV) written to file bands.out.gnu
     Bands written to file bands.out

 **************************************************************************

                    xk=(   0.37500,   0.37500,   0.75000  )

     point group C_s (m)    
     there are  2 classes
     the character table:

       E     s    
A'     1.00  1.00
A''    1.00 -1.00

     the symmetry operations in each class and the name of the first element:

     E        1
                                                                 
     s        2
                                                                 

     Band symmetry, C_s (m)     point group:

     e(  1 -  1) =     -2.86305  eV     1   --> A'             
     e(  2 -  2) =     -0.45080  eV     1   --> A'             
     e(  3 -  3) =      3.18283  eV     1   --> A'             
     e(  4 -  4) =      4.65000  eV     1   --> A''            
     e(  5 -  5) =      8.47143  eV     1   --> A'             
     e(  6 -  6) =     10.92067  eV     1   --> A'             
     e(  7 -  7) =     11.19224  eV     1   --> A''            
     e(  8 -  8) =     13.63808  eV     1   --> A'             
     e(  9 -  9) =     15.47475  eV     1   --> A'             
     e( 10 - 10) =     15.72253  eV     1   --> A''            
     e( 11 - 11) =     18.05983  eV     1   --> A'             
     e( 12 - 12) =     19.79585  eV     1   --> A''            
     e( 13 - 13) =     20.57411  eV     1   --> A'             
     e( 14 - 14) =     22.25462  eV     1   --> A'             
     e( 15 - 15) =     24.94783  eV     1   --> A'             
     e( 16 - 16) =     26.06456  eV     1   --> A'             

 **************************************************************************

 **************************************************************************

                    xk=(   0.36719,   0.36719,   0.73438  )

     Band symmetry, C_s (m)     point group:

     e(  1 -  1) =     -2.88491  eV     1   --> A'             
     e(  2 -  2) =     -0.44885  eV     1   --> A'             
     e(  3 -  3) =      3.26128  eV     1   --> A'             
     e(  4 -  4) =      4.64091  eV     1   --> A''            
     e(  5 -  5) =      8.46827  eV     1   --> A'             
     e(  6 -  6) =     10.86130  eV     1   --> A'             
     e(  7 -  7) =     11.17000  eV     1   --> A''            
     e(  8 -  8) =     13.49783  eV     1   --> A'             
     e(  9 -  9) =     15.61000  eV     1   --> A'             
     e( 10 - 10) =     15.96824  eV     1   --> A''            
     e( 11 - 11) =     18.07353  eV     1   --> A'             
     e( 12 - 12) =     19.52365  eV     1   --> A''            
     e( 13 - 13) =     20.33387  eV     1   --> A'             
     e( 14 - 14) =     22.37782  eV     1   --> A'             
     e( 15 - 15) =     25.29827  eV     1   --> A'             
     e( 16 - 16) =     25.80188  eV     1   --> A'             

 **************************************************************************

 **************************************************************************

                    xk=(   0.35938,   0.35938,   0.71875  )

     Band symmetry, C_s (m)     point group:

     e(  1 -  1) =     -2.91972  eV     1   --> A'             
     e(  2 -  2) =     -0.42855  eV     1   --> A'             
     e(  3 -  3) =      3.34187  eV     1   --> A'             
     e(  4 -  4) =      4.63482  eV     1   --> A''            
     e(  5 -  5) =      8.46823  eV     1   --> A'             
     e(  6 -  6) =     10.80373  eV     1   --> A'             
     e(  7 -  7) =     11.15200  eV     1   --> A''            
     e(  8 -  8) =     13.36147  eV     1   --> A'             
     e(  9 -  9) =     15.72658  eV     1   --> A'             
     e( 10 - 10) =     16.21693  eV     1   --> A''            
     e( 11 - 11) =     18.11126  eV     1   --> A'             
     e( 12 - 12) =     19.25767  eV     1   --> A''            
     e( 13 - 13) =     20.09559  eV     1   --> A'             
     e( 14 - 14) =     22.49679  eV     1   --> A'             
     e( 15 - 15) =     25.48923  eV     1   --> A'             
     e( 16 - 16) =     25.70864  eV     1   --> A'             

 **************************************************************************

 **************************************************************************

                    xk=(   0.35156,   0.35156,   0.70312  )

     Band symmetry, C_s (m)     point group:

     e(  1 -  1) =     -2.96670  eV     1   --> A'             
     e(  2 -  2) =     -0.39101  eV     1   --> A'             
     e(  3 -  3) =      3.42423  eV     1   --> A'             
     e(  4 -  4) =      4.63092  eV     1   --> A''            
     e(  5 -  5) =      8.47112  eV     1   --> A'             
     e(  6 -  6) =     10.74704  eV     1   --> A'             
     e(  7 -  7) =     11.13208  eV     1   --> A''            
     e(  8 -  8) =     13.22800  eV     1   --> A'             
     e(  9 -  9) =     15.82001  eV     1   --> A'             
     e( 10 - 10) =     16.46738  eV     1   --> A''            
     e( 11 - 11) =     18.17203  eV     1   --> A'             
     e( 12 - 12) =     18.99566  eV     1   --> A''            
     e( 13 - 13) =     19.85838  eV     1   --> A'             
     e( 14 - 14) =     22.60814  eV     1   --> A'             
     e( 15 - 15) =     25.24889  eV     1   --> A'             
     e( 16 - 16) =     26.04704  eV     1   --> A'             

 **************************************************************************

 **************************************************************************

                    xk=(   0.34375,   0.34375,   0.68750  )

     Band symmetry, C_s (m)     point group:

     e(  1 -  1) =     -3.02445  eV     1   --> A'             
     e(  2 -  2) =     -0.33728  eV     1   --> A'             
     e(  3 -  3) =      3.50825  eV     1   --> A'             
     e(  4 -  4) =      4.62965  eV     1   --> A''            
     e(  5 -  5) =      8.47694  eV     1   --> A'             
     e(  6 -  6) =     10.69176  eV     1   --> A'             
     e(  7 -  7) =     11.11335  eV     1   --> A''            
     e(  8 -  8) =     13.09835  eV     1   --> A'             
     e(  9 -  9) =     15.89169  eV     1   --> A'             
     e( 10 - 10) =     16.71772  eV     1   --> A''            
     e( 11 - 11) =     18.25181  eV     1   --> A'             
     e( 12 - 12) =     18.74118  eV     1   --> A''            
     e( 13 - 13) =     19.62853  eV     1   --> A'             
     e( 14 - 14) =     22.70904  eV     1   --> A'             
     e( 15 - 15) =     24.99589  eV     1   --> A'             
     e( 16 - 16) =     25.96365  eV     1   --> A''            

 **************************************************************************

 **************************************************************************

                    xk=(   0.33594,   0.33594,   0.67188  )

     Band symmetry, C_s (m)     point group:

     e(  1 -  1) =     -3.09160  eV     1   --> A'             
     e(  2 -  2) =     -0.26884  eV     1   --> A'             
     e(  3 -  3) =      3.59367  eV     1   --> A'             
     e(  4 -  4) =      4.63099  eV     1   --> A''            
     e(  5 -  5) =      8.48614  eV     1   --> A'             
     e(  6 -  6) =     10.63852  eV     1   --> A'             
     e(  7 -  7) =     11.09448  eV     1   --> A''            
     e(  8 -  8) =     12.97211  eV     1   --> A'             
     e(  9 -  9) =     15.94472  eV     1   --> A'             
     e( 10 - 10) =     16.95887  eV     1   --> A''            
     e( 11 - 11) =     18.34060  eV     1   --> A'             
     e( 12 - 12) =     18.49634  eV     1   --> A''            
     e( 13 - 13) =     19.41580  eV     1   --> A'             
     e( 14 - 14) =     22.79259  eV     1   --> A'             
     e( 15 - 15) =     24.76361  eV     1   --> A'             
     e( 16 - 16) =     25.74499  eV     1   --> A''            

 **************************************************************************

 **************************************************************************

                    xk=(   0.32812,   0.32812,   0.65625  )

     Band symmetry, C_s (m)     point group:

     e(  1 -  1) =     -3.16598  eV     1   --> A'             
     e(  2 -  2) =     -0.18697  eV     1   --> A'             
     e(  3 -  3) =      3.68051  eV     1   --> A'             
     e(  4 -  4) =      4.63541  eV     1   --> A''            
     e(  5 -  5) =      8.49753  eV     1   --> A'             
     e(  6 -  6) =     10.58609  eV     1   --> A'             
     e(  7 -  7) =     11.07802  eV     1   --> A''            
     e(  8 -  8) =     12.85259  eV     1   --> A'             
     e(  9 -  9) =     15.97888  eV     1   --> A'             
     e( 10 - 10) =     17.19879  eV     1   --> A''            
     e( 11 - 11) =     18.27592  eV     1   --> A''            
     e( 12 - 12) =     18.41199  eV     1   --> A'             
     e( 13 - 13) =     19.24380  eV     1   --> A'             
     e( 14 - 14) =     22.85853  eV     1   --> A'             
     e( 15 - 15) =     24.55384  eV     1   --> A'             
     e( 16 - 16) =     25.51804  eV     1   --> A''            

 **************************************************************************

 **************************************************************************

                    xk=(   0.32031,   0.32031,   0.64062  )

     Band symmetry, C_s (m)     point group:

     e(  1 -  1) =     -3.24668  eV     1   --> A'             
     e(  2 -  2) =     -0.09353  eV     1   --> A'             
     e(  3 -  3) =      3.76881  eV     1   --> A'             
     e(  4 -  4) =      4.64218  eV     1   --> A''            
     e(  5 -  5) =      8.51157  eV     1   --> A'             
     e(  6 -  6) =     10.53621  eV     1   --> A'             
     e(  7 -  7) =     11.06407  eV     1   --> A''            
     e(  8 -  8) =     12.73622  eV     1   --> A'             
     e(  9 -  9) =     15.99842  eV     1   --> A'             
     e( 10 - 10) =     17.38158  eV     1   --> A''            
     e( 11 - 11) =     18.11082  eV     1   --> A''            
     e( 12 - 12) =     18.41521  eV     1   --> A'             
     e( 13 - 13) =     19.15584  eV     1   --> A'             
     e( 14 - 14) =     22.87985  eV     1   --> A'             
     e( 15 - 15) =     24.38500  eV     1   --> A'             
     e( 16 - 16) =     25.28144  eV     1   --> A''            

 **************************************************************************

 **************************************************************************

                    xk=(   0.31250,   0.31250,   0.62500  )

     Band symmetry, C_s (m)     point group:

     e(  1 -  1) =     -3.33207  eV     1   --> A'             
     e(  2 -  2) =      0.01017  eV     1   --> A'             
     e(  3 -  3) =      3.85771  eV     1   --> A'             
     e(  4 -  4) =      4.65165  eV     1   --> A''            
     e(  5 -  5) =      8.52776  eV     1   --> A'             
     e(  6 -  6) =     10.48665  eV     1   --> A'             
     e(  7 -  7) =     11.04945  eV     1   --> A''            
     e(  8 -  8) =     12.62452  eV     1   --> A'             
     e(  9 -  9) =     16.00660  eV     1   --> A'             
     e( 10 - 10) =     17.42242  eV     1   --> A''            
     e( 11 - 11) =     18.09430  eV     1   --> A''            
     e( 12 - 12) =     18.31163  eV     1   --> A'             
     e( 13 - 13) =     19.18806  eV     1   --> A'             
     e( 14 - 14) =     22.84865  eV     1   --> A'             
     e( 15 - 15) =     24.26818  eV     1   --> A'             
     e( 16 - 16) =     25.04071  eV     1   --> A''            

 **************************************************************************

 **************************************************************************

                    xk=(   0.30469,   0.30469,   0.60938  )

     Band symmetry, C_s (m)     point group:

     e(  1 -  1) =     -3.42092  eV     1   --> A'             
     e(  2 -  2) =      0.12303  eV     1   --> A'             
     e(  3 -  3) =      3.94743  eV     1   --> A'             
     e(  4 -  4) =      4.66385  eV     1   --> A''            
     e(  5 -  5) =      8.54610  eV     1   --> A'             
     e(  6 -  6) =     10.43852  eV     1   --> A'             
     e(  7 -  7) =     11.03555  eV     1   --> A''            
     e(  8 -  8) =     12.51807  eV     1   --> A'             
     e(  9 -  9) =     16.00644  eV     1   --> A'             
     e( 10 - 10) =     17.29709  eV     1   --> A''            
     e( 11 - 11) =     18.13274  eV     1   --> A'             
     e( 12 - 12) =     18.25071  eV     1   --> A''            
     e( 13 - 13) =     19.30512  eV     1   --> A'             
     e( 14 - 14) =     22.75897  eV     1   --> A'             
     e( 15 - 15) =     24.21428  eV     1   --> A'             
     e( 16 - 16) =     24.79939  eV     1   --> A''            

 **************************************************************************

 **************************************************************************

                    xk=(   0.29688,   0.29688,   0.59375  )

     Band symmetry, C_s (m)     point group:

     e(  1 -  1) =     -3.51221  eV     1   --> A'             
     e(  2 -  2) =      0.24405  eV     1   --> A'             
     e(  3 -  3) =      4.03781  eV     1   --> A'             
     e(  4 -  4) =      4.67876  eV     1   --> A''            
     e(  5 -  5) =      8.56633  eV     1   --> A'             
     e(  6 -  6) =     10.39179  eV     1   --> A'             
     e(  7 -  7) =     11.02218  eV     1   --> A''            
     e(  8 -  8) =     12.41724  eV     1   --> A'             
     e(  9 -  9) =     16.00024  eV     1   --> A'             
     e( 10 - 10) =     17.10468  eV     1   --> A''            
     e( 11 - 11) =     17.92039  eV     1   --> A'             
     e( 12 - 12) =     18.48062  eV     1   --> A''            
     e( 13 - 13) =     19.46037  eV     1   --> A'             
     e( 14 - 14) =     22.61997  eV     1   --> A'             
     e( 15 - 15) =     24.21549  eV     1   --> A'             
     e( 16 - 16) =     24.55975  eV     1   --> A''            

 **************************************************************************

 **************************************************************************

                    xk=(   0.28906,   0.28906,   0.57812  )

     Band symmetry, C_s (m)     point group:

     e(  1 -  1) =     -3.60504  eV     1   --> A'             
     e(  2 -  2) =      0.37236  eV     1   --> A'             
     e(  3 -  3) =      4.12872  eV     1   --> A'             
     e(  4 -  4) =      4.69639  eV     1   --> A''            
     e(  5 -  5) =      8.58820  eV     1   --> A'             
     e(  6 -  6) =     10.34641  eV     1   --> A'             
     e(  7 -  7) =     11.00911  eV     1   --> A''            
     e(  8 -  8) =     12.32241  eV     1   --> A'             
     e(  9 -  9) =     15.98968  eV     1   --> A'             
     e( 10 - 10) =     16.89429  eV     1   --> A''            
     e( 11 - 11) =     17.69445  eV     1   --> A'             
     e( 12 - 12) =     18.73441  eV     1   --> A''            
     e( 13 - 13) =     19.62832  eV     1   --> A'             
     e( 14 - 14) =     22.45094  eV     1   --> A'             
     e( 15 - 15) =     24.25420  eV     1   --> A'             
     e( 16 - 16) =     24.32371  eV     1   --> A''            

 **************************************************************************

 **************************************************************************

                    xk=(   0.28125,   0.28125,   0.56250  )

     Band symmetry, C_s (m)     point group:

     e(  1 -  1) =     -3.69856  eV     1   --> A'             
     e(  2 -  2) =      0.50748  eV     1   --> A'             
     e(  3 -  3) =      4.22001  eV     1   --> A'             
     e(  4 -  4) =      4.71678  eV     1   --> A''            
     e(  5 -  5) =      8.61149  eV     1   --> A'             
     e(  6 -  6) =     10.30237  eV     1   --> A'             
     e(  7 -  7) =     10.99612  eV     1   --> A''            
     e(  8 -  8) =     12.23401  eV     1   --> A'             
     e(  9 -  9) =     15.97684  eV     1   --> A'             
     e( 10 - 10) =     16.68150  eV     1   --> A''            
     e( 11 - 11) =     17.46379  eV     1   --> A'             
     e( 12 - 12) =     19.00142  eV     1   --> A''            
     e( 13 - 13) =     19.79312  eV     1   --> A'             
     e( 14 - 14) =     22.27422  eV     1   --> A'             
     e( 15 - 15) =     24.09318  eV     1   --> A''            
     e( 16 - 16) =     24.31301  eV     1   --> A'             

 **************************************************************************

 **************************************************************************

                    xk=(   0.27344,   0.27344,   0.54688  )

     Band symmetry, C_s (m)     point group:

     e(  1 -  1) =     -3.79243  eV     1   --> A'             
     e(  2 -  2) =      0.64832  eV     1   --> A'             
     e(  3 -  3) =      4.31153  eV     1   --> A'             
     e(  4 -  4) =      4.73985  eV     1   --> A''            
     e(  5 -  5) =      8.63572  eV     1   --> A'             
     e(  6 -  6) =     10.25939  eV     1   --> A'             
     e(  7 -  7) =     10.98283  eV     1   --> A''            
     e(  8 -  8) =     12.15247  eV     1   --> A'             
     e(  9 -  9) =     15.95998  eV     1   --> A'             
     e( 10 - 10) =     16.46932  eV     1   --> A''            
     e( 11 - 11) =     17.23221  eV     1   --> A'             
     e( 12 - 12) =     19.26601  eV     1   --> A''            
     e( 13 - 13) =     19.93985  eV     1   --> A'             
     e( 14 - 14) =     22.10638  eV     1   --> A'             
     e( 15 - 15) =     23.87017  eV     1   --> A''            
     e( 16 - 16) =     24.37149  eV     1   --> A'             

 **************************************************************************

 **************************************************************************

                    xk=(   0.26562,   0.26562,   0.53125  )

     Band symmetry, C_s (m)     point group:

     e(  1 -  1) =     -3.88600  eV     1   --> A'             
     e(  2 -  2) =      0.79460  eV     1   --> A'             
     e(  3 -  3) =      4.40313  eV     1   --> A'             
     e(  4 -  4) =      4.76563  eV     1   --> A''            
     e(  5 -  5) =      8.66063  eV     1   --> A'             
     e(  6 -  6) =     10.21742  eV     1   --> A'             
     e(  7 -  7) =     10.96895  eV     1   --> A''            
     e(  8 -  8) =     12.07828  eV     1   --> A'             
     e(  9 -  9) =     15.93953  eV     1   --> A'             
     e( 10 - 10) =     16.26137  eV     1   --> A''            
     e( 11 - 11) =     17.00341  eV     1   --> A'             
     e( 12 - 12) =     19.52848  eV     1   --> A''            
     e( 13 - 13) =     20.05081  eV     1   --> A'             
     e( 14 - 14) =     21.96923  eV     1   --> A'             
     e( 15 - 15) =     23.65730  eV     1   --> A''            
     e( 16 - 16) =     24.41077  eV     1   --> A'             

 **************************************************************************

 **************************************************************************

                    xk=(   0.25781,   0.25781,   0.51562  )

     Band symmetry, C_s (m)     point group:

     e(  1 -  1) =     -3.97884  eV     1   --> A'             
     e(  2 -  2) =      0.94589  eV     1   --> A'             
     e(  3 -  3) =      4.49467  eV     1   --> A'             
     e(  4 -  4) =      4.79409  eV     1   --> A''            
     e(  5 -  5) =      8.68588  eV     1   --> A'             
     e(  6 -  6) =     10.17631  eV     1   --> A'             
     e(  7 -  7) =     10.95408  eV     1   --> A''            
     e(  8 -  8) =     12.01194  eV     1   --> A'             
     e(  9 -  9) =     15.91315  eV     1   --> A'             
     e( 10 - 10) =     16.05905  eV     1   --> A''            
     e( 11 - 11) =     16.78147  eV     1   --> A'             
     e( 12 - 12) =     19.78468  eV     1   --> A''            
     e( 13 - 13) =     20.10567  eV     1   --> A'             
     e( 14 - 14) =     21.88362  eV     1   --> A'             
     e( 15 - 15) =     23.45807  eV     1   --> A''            
     e( 16 - 16) =     24.40536  eV     1   --> A'             

 **************************************************************************

 **************************************************************************

                    xk=(   0.25000,   0.25000,   0.50000  )

     Band symmetry, C_s (m)     point group:

     e(  1 -  1) =     -4.07090  eV     1   --> A'             
     e(  2 -  2) =      1.10179  eV     1   --> A'             
     e(  3 -  3) =      4.58593  eV     1   --> A'             
     e(  4 -  4) =      4.82507  eV     1   --> A''            
     e(  5 -  5) =      8.71041  eV     1   --> A'             
     e(  6 -  6) =     10.13583  eV     1   --> A'             
     e(  7 -  7) =     10.93720  eV     1   --> A''            
     e(  8 -  8) =     11.95299  eV     1   --> A'             
     e(  9 -  9) =     15.85705  eV     1   --> A''            
     e( 10 - 10) =     15.87473  eV     1   --> A'             
     e( 11 - 11) =     16.57293  eV     1   --> A'             
     e( 12 - 12) =     20.02479  eV     1   --> A''            
     e( 13 - 13) =     20.08893  eV     1   --> A'             
     e( 14 - 14) =     21.85774  eV     1   --> A'             
     e( 15 - 15) =     23.27716  eV     1   --> A''            
     e( 16 - 16) =     24.33554  eV     1   --> A'             

 **************************************************************************

 **************************************************************************

                    xk=(   0.24219,   0.24219,   0.48438  )

     Band symmetry, C_s (m)     point group:

     e(  1 -  1) =     -4.16110  eV     1   --> A'             
     e(  2 -  2) =      1.26238  eV     1   --> A'             
     e(  3 -  3) =      4.67746  eV     1   --> A'             
     e(  4 -  4) =      4.85892  eV     1   --> A''            
     e(  5 -  5) =      8.73613  eV     1   --> A'             
     e(  6 -  6) =     10.09601  eV     1   --> A'             
     e(  7 -  7) =     10.91975  eV     1   --> A''            
     e(  8 -  8) =     11.90557  eV     1   --> A'             
     e(  9 -  9) =     15.67348  eV     1   --> A''            
     e( 10 - 10) =     15.81488  eV     1   --> A'             
     e( 11 - 11) =     16.39172  eV     1   --> A'             
     e( 12 - 12) =     20.00197  eV     1   --> A'             
     e( 13 - 13) =     20.25258  eV     1   --> A''            
     e( 14 - 14) =     21.90843  eV     1   --> A'             
     e( 15 - 15) =     23.12574  eV     1   --> A''            
     e( 16 - 16) =     24.22152  eV     1   --> A'             

 **************************************************************************

 **************************************************************************

                    xk=(   0.23438,   0.23438,   0.46875  )

     Band symmetry, C_s (m)     point group:

     e(  1 -  1) =     -4.24984  eV     1   --> A'             
     e(  2 -  2) =      1.42664  eV     1   --> A'             
     e(  3 -  3) =      4.76801  eV     1   --> A'             
     e(  4 -  4) =      4.89533  eV     1   --> A''            
     e(  5 -  5) =      8.76030  eV     1   --> A'             
     e(  6 -  6) =     10.05623  eV     1   --> A'             
     e(  7 -  7) =     10.89915  eV     1   --> A''            
     e(  8 -  8) =     11.86568  eV     1   --> A'             
     e(  9 -  9) =     15.49343  eV     1   --> A''            
     e( 10 - 10) =     15.71269  eV     1   --> A'             
     e( 11 - 11) =     16.25384  eV     1   --> A'             
     e( 12 - 12) =     19.85828  eV     1   --> A'             
     e( 13 - 13) =     20.44849  eV     1   --> A''            
     e( 14 - 14) =     21.98764  eV     1   --> A'             
     e( 15 - 15) =     23.00724  eV     1   --> A''            
     e( 16 - 16) =     24.08114  eV     1   --> A'             

 **************************************************************************

 **************************************************************************

                    xk=(   0.22656,   0.22656,   0.45312  )

     Band symmetry, C_s (m)     point group:

     e(  1 -  1) =     -4.33674  eV     1   --> A'             
     e(  2 -  2) =      1.59466  eV     1   --> A'             
     e(  3 -  3) =      4.85793  eV     1   --> A'             
     e(  4 -  4) =      4.93434  eV     1   --> A''            
     e(  5 -  5) =      8.78351  eV     1   --> A'             
     e(  6 -  6) =     10.01647  eV     1   --> A'             
     e(  7 -  7) =     10.87565  eV     1   --> A''            
     e(  8 -  8) =     11.83538  eV     1   --> A'             
     e(  9 -  9) =     15.32216  eV     1   --> A''            
     e( 10 - 10) =     15.56188  eV     1   --> A'             
     e( 11 - 11) =     16.16836  eV     1   --> A'             
     e( 12 - 12) =     19.67742  eV     1   --> A'             
     e( 13 - 13) =     20.60148  eV     1   --> A''            
     e( 14 - 14) =     22.07394  eV     1   --> A'             
     e( 15 - 15) =     22.93850  eV     1   --> A''            
     e( 16 - 16) =     23.95419  eV     1   --> A'             

 **************************************************************************

 **************************************************************************

                    xk=(   0.21875,   0.21875,   0.43750  )

     Band symmetry, C_s (m)     point group:

     e(  1 -  1) =     -4.42160  eV     1   --> A'             
     e(  2 -  2) =      1.76621  eV     1   --> A'             
     e(  3 -  3) =      4.94707  eV     1   --> A'             
     e(  4 -  4) =      4.97590  eV     1   --> A''            
     e(  5 -  5) =      8.80553  eV     1   --> A'             
     e(  6 -  6) =      9.97656  eV     1   --> A'             
     e(  7 -  7) =     10.84873  eV     1   --> A''            
     e(  8 -  8) =     11.81483  eV     1   --> A'             
     e(  9 -  9) =     15.16030  eV     1   --> A''            
     e( 10 - 10) =     15.37558  eV     1   --> A'             
     e( 11 - 11) =     16.12237  eV     1   --> A'             
     e( 12 - 12) =     19.47432  eV     1   --> A'             
     e( 13 - 13) =     20.69774  eV     1   --> A''            
     e( 14 - 14) =     22.13422  eV     1   --> A'             
     e( 15 - 15) =     22.93331  eV     1   --> A''            
     e( 16 - 16) =     23.87067  eV     1   --> A'             

 **************************************************************************

 **************************************************************************

                    xk=(   0.21094,   0.21094,   0.42188  )

     Band symmetry, C_s (m)     point group:

     e(  1 -  1) =     -4.50428  eV     1   --> A'             
     e(  2 -  2) =      1.94108  eV     1   --> A'             
     e(  3 -  3) =      5.01997  eV     1   --> A''            
     e(  4 -  4) =      5.03530  eV     1   --> A'             
     e(  5 -  5) =      8.82618  eV     1   --> A'             
     e(  6 -  6) =      9.93635  eV     1   --> A'             
     e(  7 -  7) =     10.81781  eV     1   --> A''            
     e(  8 -  8) =     11.80403  eV     1   --> A'             
     e(  9 -  9) =     15.00848  eV     1   --> A''            
     e( 10 - 10) =     15.17085  eV     1   --> A'             
     e( 11 - 11) =     16.09889  eV     1   --> A'             
     e( 12 - 12) =     19.25920  eV     1   --> A'             
     e( 13 - 13) =     20.72942  eV     1   --> A''            
     e( 14 - 14) =     22.13987  eV     1   --> A'             
     e( 15 - 15) =     22.99952  eV     1   --> A''            
     e( 16 - 16) =     23.85544  eV     1   --> A'             

 **************************************************************************

 **************************************************************************

                    xk=(   0.20312,   0.20312,   0.40625  )

     Band symmetry, C_s (m)     point group:

     e(  1 -  1) =     -4.58471  eV     1   --> A'             
     e(  2 -  2) =      2.11904  eV     1   --> A'             
     e(  3 -  3) =      5.06630  eV     1   --> A''            
     e(  4 -  4) =      5.12245  eV     1   --> A'             
     e(  5 -  5) =      8.84524  eV     1   --> A'             
     e(  6 -  6) =      9.89573  eV     1   --> A'             
     e(  7 -  7) =     10.78066  eV     1   --> A''            
     e(  8 -  8) =     11.80171  eV     1   --> A'             
     e(  9 -  9) =     14.86439  eV     1   --> A''            
     e( 10 - 10) =     14.95762  eV     1   --> A'             
     e( 11 - 11) =     16.08750  eV     1   --> A'             
     e( 12 - 12) =     19.03873  eV     1   --> A'             
     e( 13 - 13) =     20.69605  eV     1   --> A''            
     e( 14 - 14) =     22.07811  eV     1   --> A'             
     e( 15 - 15) =     23.13266  eV     1   --> A''            
     e( 16 - 16) =     23.91750  eV     1   --> A'             

 **************************************************************************

 **************************************************************************

                    xk=(   0.19531,   0.19531,   0.39062  )

     Band symmetry, C_s (m)     point group:

     e(  1 -  1) =     -4.66262  eV     1   --> A'             
     e(  2 -  2) =      2.29995  eV     1   --> A'             
     e(  3 -  3) =      5.11522  eV     1   --> A''            
     e(  4 -  4) =      5.20835  eV     1   --> A'             
     e(  5 -  5) =      8.86252  eV     1   --> A'             
     e(  6 -  6) =      9.85331  eV     1   --> A'             
     e(  7 -  7) =     10.74010  eV     1   --> A''            
     e(  8 -  8) =     11.80809  eV     1   --> A'             
     e(  9 -  9) =     14.72945  eV     1   --> A''            
     e( 10 - 10) =     14.74237  eV     1   --> A'             
     e( 11 - 11) =     16.08218  eV     1   --> A'             
     e( 12 - 12) =     18.81753  eV     1   --> A'             
     e( 13 - 13) =     20.61593  eV     1   --> A''            
     e( 14 - 14) =     21.95390  eV     1   --> A'             
     e( 15 - 15) =     23.32164  eV     1   --> A''            
     e( 16 - 16) =     24.04700  eV     1   --> A'             

 **************************************************************************

 **************************************************************************

                    xk=(   0.18750,   0.18750,   0.37500  )

     Band symmetry, C_s (m)     point group:

     e(  1 -  1) =     -4.73798  eV     1   --> A'             
     e(  2 -  2) =      2.48359  eV     1   --> A'             
     e(  3 -  3) =      5.16650  eV     1   --> A''            
     e(  4 -  4) =      5.29293  eV     1   --> A'             
     e(  5 -  5) =      8.87868  eV     1   --> A'             
     e(  6 -  6) =      9.81208  eV     1   --> A'             
     e(  7 -  7) =     10.69479  eV     1   --> A''            
     e(  8 -  8) =     11.82399  eV     1   --> A'             
     e(  9 -  9) =     14.52817  eV     1   --> A'             
     e( 10 - 10) =     14.61326  eV     1   --> A''            
     e( 11 - 11) =     16.08055  eV     1   --> A'             
     e( 12 - 12) =     18.60032  eV     1   --> A'             
     e( 13 - 13) =     20.50542  eV     1   --> A''            
     e( 14 - 14) =     21.79058  eV     1   --> A'             
     e( 15 - 15) =     23.55472  eV     1   --> A''            
     e( 16 - 16) =     24.22532  eV     1   --> A'             

 **************************************************************************

 **************************************************************************

                    xk=(   0.17969,   0.17969,   0.35938  )

     Band symmetry, C_s (m)     point group:

     e(  1 -  1) =     -4.81072  eV     1   --> A'             
     e(  2 -  2) =      2.66977  eV     1   --> A'             
     e(  3 -  3) =      5.22001  eV     1   --> A''            
     e(  4 -  4) =      5.37590  eV     1   --> A'             
     e(  5 -  5) =      8.89340  eV     1   --> A'             
     e(  6 -  6) =      9.77045  eV     1   --> A'             
     e(  7 -  7) =     10.64298  eV     1   --> A''            
     e(  8 -  8) =     11.84625  eV     1   --> A'             
     e(  9 -  9) =     14.31721  eV     1   --> A'             
     e( 10 - 10) =     14.50688  eV     1   --> A''            
     e( 11 - 11) =     16.07901  eV     1   --> A'             
     e( 12 - 12) =     18.38962  eV     1   --> A'             
     e( 13 - 13) =     20.36910  eV     1   --> A''            
     e( 14 - 14) =     21.59969  eV     1   --> A'             
     e( 15 - 15) =     23.81580  eV     1   --> A''            
     e( 16 - 16) =     24.43149  eV     1   --> A'             

 **************************************************************************

 **************************************************************************

                    xk=(   0.17188,   0.17188,   0.34375  )

     Band symmetry, C_s (m)     point group:

     e(  1 -  1) =     -4.88076  eV     1   --> A'             
     e(  2 -  2) =      2.85829  eV     1   --> A'             
     e(  3 -  3) =      5.27568  eV     1   --> A''            
     e(  4 -  4) =      5.45713  eV     1   --> A'             
     e(  5 -  5) =      8.90682  eV     1   --> A'             
     e(  6 -  6) =      9.72871  eV     1   --> A'             
     e(  7 -  7) =     10.58522  eV     1   --> A''            
     e(  8 -  8) =     11.87310  eV     1   --> A'             
     e(  9 -  9) =     14.11201  eV     1   --> A'             
     e( 10 - 10) =     14.41258  eV     1   --> A''            
     e( 11 - 11) =     16.07527  eV     1   --> A'             
     e( 12 - 12) =     18.18881  eV     1   --> A'             
     e( 13 - 13) =     20.21874  eV     1   --> A''            
     e( 14 - 14) =     21.39293  eV     1   --> A'             
     e( 15 - 15) =     24.09763  eV     1   --> A''            
     e( 16 - 16) =     24.64627  eV     1   --> A'             

 **************************************************************************

 **************************************************************************

                    xk=(   0.16406,   0.16406,   0.32812  )

     Band symmetry, C_s (m)     point group:

     e(  1 -  1) =     -4.94802  eV     1   --> A'             
     e(  2 -  2) =      3.04900  eV     1   --> A'             
     e(  3 -  3) =      5.33347  eV     1   --> A''            
     e(  4 -  4) =      5.53648  eV     1   --> A'             
     e(  5 -  5) =      8.91910  eV     1   --> A'             
     e(  6 -  6) =      9.68768  eV     1   --> A'             
     e(  7 -  7) =     10.52156  eV     1   --> A''            
     e(  8 -  8) =     11.90170  eV     1   --> A'             
     e(  9 -  9) =     13.91548  eV     1   --> A'             
     e( 10 - 10) =     14.33451  eV     1   --> A''            
     e( 11 - 11) =     16.06649  eV     1   --> A'             
     e( 12 - 12) =     18.00140  eV     1   --> A'             
     e( 13 - 13) =     20.06141  eV     1   --> A''            
     e( 14 - 14) =     21.17715  eV     1   --> A'             
     e( 15 - 15) =     24.39452  eV     1   --> A''            
     e( 16 - 16) =     24.83870  eV     1   --> A'             

 **************************************************************************

 **************************************************************************

                    xk=(   0.15625,   0.15625,   0.31250  )

     Band symmetry, C_s (m)     point group:

     e(  1 -  1) =     -5.01245  eV     1   --> A'             
     e(  2 -  2) =      3.24158  eV     1   --> A'             
     e(  3 -  3) =      5.39312  eV     1   --> A''            
     e(  4 -  4) =      5.61372  eV     1   --> A'             
     e(  5 -  5) =      8.93037  eV     1   --> A'             
     e(  6 -  6) =      9.64634  eV     1   --> A'             
     e(  7 -  7) =     10.45196  eV     1   --> A''            
     e(  8 -  8) =     11.92777  eV     1   --> A'             
     e(  9 -  9) =     13.73153  eV     1   --> A'             
     e( 10 - 10) =     14.26423  eV     1   --> A''            
     e( 11 - 11) =     16.04937  eV     1   --> A'             
     e( 12 - 12) =     17.83118  eV     1   --> A'             
     e( 13 - 13) =     19.89861  eV     1   --> A''            
     e( 14 - 14) =     20.95663  eV     1   --> A'             
     e( 15 - 15) =     24.70192  eV     1   --> A''            
     e( 16 - 16) =     24.93422  eV     1   --> A'             

 **************************************************************************

 **************************************************************************

                    xk=(   0.14844,   0.14844,   0.29688  )

     Band symmetry, C_s (m)     point group:

     e(  1 -  1) =     -5.07401  eV     1   --> A'             
     e(  2 -  2) =      3.43603  eV     1   --> A'             
     e(  3 -  3) =      5.45455  eV     1   --> A''            
     e(  4 -  4) =      5.68862  eV     1   --> A'             
     e(  5 -  5) =      8.93994  eV     1   --> A'             
     e(  6 -  6) =      9.60526  eV     1   --> A'             
     e(  7 -  7) =     10.37677  eV     1   --> A''            
     e(  8 -  8) =     11.94693  eV     1   --> A'             
     e(  9 -  9) =     13.56634  eV     1   --> A'             
     e( 10 - 10) =     14.20538  eV     1   --> A''            
     e( 11 - 11) =     16.02042  eV     1   --> A'             
     e( 12 - 12) =     17.68036  eV     1   --> A'             
     e( 13 - 13) =     19.73373  eV     1   --> A''            
     e( 14 - 14) =     20.73470  eV     1   --> A'             
     e( 15 - 15) =     24.86220  eV     1   --> A'             
     e( 16 - 16) =     25.01683  eV     1   --> A''            

 **************************************************************************

 **************************************************************************

                    xk=(   0.14062,   0.14062,   0.28125  )

     Band symmetry, C_s (m)     point group:

     e(  1 -  1) =     -5.13261  eV     1   --> A'             
     e(  2 -  2) =      3.63179  eV     1   --> A'             
     e(  3 -  3) =      5.51766  eV     1   --> A''            
     e(  4 -  4) =      5.76114  eV     1   --> A'             
     e(  5 -  5) =      8.94985  eV     1   --> A'             
     e(  6 -  6) =      9.56562  eV     1   --> A'             
     e(  7 -  7) =     10.29696  eV     1   --> A''            
     e(  8 -  8) =     11.94879  eV     1   --> A'             
     e(  9 -  9) =     13.42773  eV     1   --> A'             
     e( 10 - 10) =     14.15892  eV     1   --> A''            
     e( 11 - 11) =     15.97611  eV     1   --> A'             
     e( 12 - 12) =     17.55677  eV     1   --> A'             
     e( 13 - 13) =     19.57023  eV     1   --> A''            
     e( 14 - 14) =     20.51367  eV     1   --> A'             
     e( 15 - 15) =     24.69883  eV     1   --> A'             
     e( 16 - 16) =     25.33832  eV     1   --> A''            

 **************************************************************************

 **************************************************************************

                    xk=(   0.13281,   0.13281,   0.26562  )

     Band symmetry, C_s (m)     point group:

     e(  1 -  1) =     -5.18828  eV     1   --> A'             
     e(  2 -  2) =      3.82849  eV     1   --> A'             
     e(  3 -  3) =      5.58214  eV     1   --> A''            
     e(  4 -  4) =      5.83094  eV     1   --> A'             
     e(  5 -  5) =      8.95755  eV     1   --> A'             
     e(  6 -  6) =      9.52598  eV     1   --> A'             
     e(  7 -  7) =     10.21095  eV     1   --> A''            
     e(  8 -  8) =     11.92259  eV     1   --> A'             
     e(  9 -  9) =     13.31825  eV     1   --> A'             
     e( 10 - 10) =     14.11804  eV     1   --> A''            
     e( 11 - 11) =     15.91360  eV     1   --> A'             
     e( 12 - 12) =     17.45943  eV     1   --> A'             
     e( 13 - 13) =     19.40673  eV     1   --> A''            
     e( 14 - 14) =     20.28709  eV     1   --> A'             
     e( 15 - 15) =     24.49616  eV     1   --> A'             
     e( 16 - 16) =     25.66334  eV     1   --> A''            

 **************************************************************************

 **************************************************************************

                    xk=(   0.12500,   0.12500,   0.25000  )

     Band symmetry, C_s (m)     point group:

     e(  1 -  1) =     -5.24081  eV     1   --> A'             
     e(  2 -  2) =      4.02609  eV     1   --> A'             
     e(  3 -  3) =      5.64854  eV     1   --> A''            
     e(  4 -  4) =      5.89826  eV     1   --> A'             
     e(  5 -  5) =      8.96620  eV     1   --> A'             
     e(  6 -  6) =      9.48841  eV     1   --> A'             
     e(  7 -  7) =     10.12252  eV     1   --> A''            
     e(  8 -  8) =     11.86769  eV     1   --> A'             
     e(  9 -  9) =     13.25501  eV     1   --> A'             
     e( 10 - 10) =     14.09127  eV     1   --> A''            
     e( 11 - 11) =     15.83295  eV     1   --> A'             
     e( 12 - 12) =     17.39294  eV     1   --> A'             
     e( 13 - 13) =     19.25093  eV     1   --> A''            
     e( 14 - 14) =     20.07113  eV     1   --> A'             
     e( 15 - 15) =     24.28152  eV     1   --> A'             
     e( 16 - 16) =     25.99736  eV     1   --> A''            

 **************************************************************************

 **************************************************************************

                    xk=(   0.11719,   0.11719,   0.23438  )

     Band symmetry, C_s (m)     point group:

     e(  1 -  1) =     -5.29037  eV     1   --> A'             
     e(  2 -  2) =      4.22407  eV     1   --> A'             
     e(  3 -  3) =      5.71521  eV     1   --> A''            
     e(  4 -  4) =      5.96219  eV     1   --> A'             
     e(  5 -  5) =      8.97438  eV     1   --> A'             
     e(  6 -  6) =      9.45196  eV     1   --> A'             
     e(  7 -  7) =     10.03071  eV     1   --> A''            
     e(  8 -  8) =     11.77679  eV     1   --> A'             
     e(  9 -  9) =     13.23218  eV     1   --> A'             
     e( 10 - 10) =     14.07329  eV     1   --> A''            
     e( 11 - 11) =     15.73578  eV     1   --> A'             
     e( 12 - 12) =     17.35347  eV     1   --> A'             
     e( 13 - 13) =     19.09624  eV     1   --> A''            
     e( 14 - 14) =     19.85549  eV     1   --> A'             
     e( 15 - 15) =     24.06220  eV     1   --> A'             
     e( 16 - 16) =     26.32734  eV     1   --> A''            

 **************************************************************************

 **************************************************************************

                    xk=(   0.10938,   0.10938,   0.21875  )

     Band symmetry, C_s (m)     point group:

     e(  1 -  1) =     -5.33678  eV     1   --> A'             
     e(  2 -  2) =      4.42258  eV     1   --> A'             
     e(  3 -  3) =      5.78258  eV     1   --> A''            
     e(  4 -  4) =      6.02308  eV     1   --> A'             
     e(  5 -  5) =      8.98226  eV     1   --> A'             
     e(  6 -  6) =      9.41728  eV     1   --> A'             
     e(  7 -  7) =      9.93710  eV     1   --> A''            
     e(  8 -  8) =     11.65576  eV     1   --> A'             
     e(  9 -  9) =     13.24903  eV     1   --> A'             
     e( 10 - 10) =     14.06498  eV     1   --> A''            
     e( 11 - 11) =     15.62606  eV     1   --> A'             
     e( 12 - 12) =     17.33872  eV     1   --> A'             
     e( 13 - 13) =     18.94657  eV     1   --> A''            
     e( 14 - 14) =     19.64523  eV     1   --> A'             
     e( 15 - 15) =     23.84376  eV     1   --> A'             
     e( 16 - 16) =     26.66402  eV     1   --> A''            

 **************************************************************************

 **************************************************************************

                    xk=(   0.10156,   0.10156,   0.20312  )

     Band symmetry, C_s (m)     point group:

     e(  1 -  1) =     -5.38015  eV     1   --> A'             
     e(  2 -  2) =      4.61993  eV     1   --> A'             
     e(  3 -  3) =      5.85017  eV     1   --> A''            
     e(  4 -  4) =      6.08034  eV     1   --> A'             
     e(  5 -  5) =      8.98919  eV     1   --> A'             
     e(  6 -  6) =      9.38356  eV     1   --> A'             
     e(  7 -  7) =      9.84192  eV     1   --> A''            
     e(  8 -  8) =     11.51214  eV     1   --> A'             
     e(  9 -  9) =     13.29174  eV     1   --> A'             
     e( 10 - 10) =     14.06221  eV     1   --> A''            
     e( 11 - 11) =     15.50772  eV     1   --> A'             
     e( 12 - 12) =     17.34229  eV     1   --> A'             
     e( 13 - 13) =     18.80245  eV     1   --> A''            
     e( 14 - 14) =     19.43680  eV     1   --> A'             
     e( 15 - 15) =     23.62890  eV     1   --> A'             
     e( 16 - 16) =     26.99349  eV     1   --> A''            

 **************************************************************************

 **************************************************************************

                    xk=(   0.09375,   0.09375,   0.18750  )

     Band symmetry, C_s (m)     point group:

     e(  1 -  1) =     -5.42040  eV     1   --> A'             
     e(  2 -  2) =      4.81603  eV     1   --> A'             
     e(  3 -  3) =      5.91762  eV     1   --> A''            
     e(  4 -  4) =      6.13400  eV     1   --> A'             
     e(  5 -  5) =      8.99560  eV     1   --> A'             
     e(  6 -  6) =      9.35168  eV     1   --> A'             
     e(  7 -  7) =      9.74652  eV     1   --> A''            
     e(  8 -  8) =     11.35414  eV     1   --> A'             
     e(  9 -  9) =     13.35808  eV     1   --> A'             
     e( 10 - 10) =     14.06562  eV     1   --> A''            
     e( 11 - 11) =     15.38558  eV     1   --> A'             
     e( 12 - 12) =     17.36101  eV     1   --> A'             
     e( 13 - 13) =     18.66469  eV     1   --> A''            
     e( 14 - 14) =     19.23577  eV     1   --> A'             
     e( 15 - 15) =     23.42025  eV     1   --> A'             
     e( 16 - 16) =     27.32058  eV     1   --> A''            

 **************************************************************************

 **************************************************************************

                    xk=(   0.08594,   0.08594,   0.17188  )

     Band symmetry, C_s (m)     point group:

     e(  1 -  1) =     -5.45750  eV     1   --> A'             
     e(  2 -  2) =      5.01009  eV     1   --> A'             
     e(  3 -  3) =      5.98445  eV     1   --> A''            
     e(  4 -  4) =      6.18391  eV     1   --> A'             
     e(  5 -  5) =      9.00116  eV     1   --> A'             
     e(  6 -  6) =      9.32117  eV     1   --> A'             
     e(  7 -  7) =      9.65197  eV     1   --> A''            
     e(  8 -  8) =     11.18851  eV     1   --> A'             
     e(  9 -  9) =     13.43919  eV     1   --> A'             
     e( 10 - 10) =     14.07418  eV     1   --> A''            
     e( 11 - 11) =     15.26329  eV     1   --> A'             
     e( 12 - 12) =     17.39099  eV     1   --> A'             
     e( 13 - 13) =     18.53398  eV     1   --> A''            
     e( 14 - 14) =     19.04132  eV     1   --> A'             
     e( 15 - 15) =     23.21968  eV     1   --> A'             
     e( 16 - 16) =     27.64360  eV     1   --> A''            

 **************************************************************************

 **************************************************************************

                    xk=(   0.07812,   0.07812,   0.15625  )

     Band symmetry, C_s (m)     point group:

     e(  1 -  1) =     -5.49143  eV     1   --> A'             
     e(  2 -  2) =      5.20113  eV     1   --> A'             
     e(  3 -  3) =      6.05009  eV     1   --> A''            
     e(  4 -  4) =      6.22991  eV     1   --> A'             
     e(  5 -  5) =      9.00569  eV     1   --> A'             
     e(  6 -  6) =      9.29171  eV     1   --> A'             
     e(  7 -  7) =      9.55934  eV     1   --> A''            
     e(  8 -  8) =     11.02061  eV     1   --> A'             
     e(  9 -  9) =     13.52980  eV     1   --> A'             
     e( 10 - 10) =     14.08687  eV     1   --> A''            
     e( 11 - 11) =     15.14395  eV     1   --> A'             
     e( 12 - 12) =     17.42900  eV     1   --> A'             
     e( 13 - 13) =     18.41103  eV     1   --> A''            
     e( 14 - 14) =     18.85446  eV     1   --> A'             
     e( 15 - 15) =     23.02882  eV     1   --> A'             
     e( 16 - 16) =     27.96046  eV     1   --> A''            

 **************************************************************************

 **************************************************************************

                    xk=(   0.07031,   0.07031,   0.14062  )

     Band symmetry, C_s (m)     point group:

     e(  1 -  1) =     -5.52217  eV     1   --> A'             
     e(  2 -  2) =      5.38793  eV     1   --> A'             
     e(  3 -  3) =      6.11386  eV     1   --> A''            
     e(  4 -  4) =      6.27187  eV     1   --> A'             
     e(  5 -  5) =      9.00907  eV     1   --> A'             
     e(  6 -  6) =      9.26274  eV     1   --> A'             
     e(  7 -  7) =      9.46977  eV     1   --> A''            
     e(  8 -  8) =     10.85489  eV     1   --> A'             
     e(  9 -  9) =     13.62579  eV     1   --> A'             
     e( 10 - 10) =     14.10263  eV     1   --> A''            
     e( 11 - 11) =     15.03005  eV     1   --> A'             
     e( 12 - 12) =     17.47229  eV     1   --> A'             
     e( 13 - 13) =     18.29655  eV     1   --> A''            
     e( 14 - 14) =     18.67634  eV     1   --> A'             
     e( 15 - 15) =     22.84921  eV     1   --> A'             
     e( 16 - 16) =     28.26853  eV     1   --> A''            

 **************************************************************************

 **************************************************************************

                    xk=(   0.06250,   0.06250,   0.12500  )

     Band symmetry, C_s (m)     point group:

     e(  1 -  1) =     -5.54972  eV     1   --> A'             
     e(  2 -  2) =      5.56894  eV     1   --> A'             
     e(  3 -  3) =      6.17502  eV     1   --> A''            
     e(  4 -  4) =      6.30968  eV     1   --> A'             
     e(  5 -  5) =      9.01124  eV     1   --> A'             
     e(  6 -  6) =      9.23354  eV     1   --> A'             
     e(  7 -  7) =      9.38446  eV     1   --> A''            
     e(  8 -  8) =     10.69533  eV     1   --> A'             
     e(  9 -  9) =     13.72372  eV     1   --> A'             
     e( 10 - 10) =     14.12043  eV     1   --> A''            
     e( 11 - 11) =     14.92361  eV     1   --> A'             
     e( 12 - 12) =     17.51848  eV     1   --> A'             
     e( 13 - 13) =     18.19126  eV     1   --> A''            
     e( 14 - 14) =     18.50836  eV     1   --> A'             
     e( 15 - 15) =     22.68239  eV     1   --> A'             
     e( 16 - 16) =     28.56443  eV     1   --> A''            

 **************************************************************************

 **************************************************************************

                    xk=(   0.05469,   0.05469,   0.10938  )

     Band symmetry, C_s (m)     point group:

     e(  1 -  1) =     -5.57405  eV     1   --> A'             
     e(  2 -  2) =      5.74220  eV     1   --> A'             
     e(  3 -  3) =      6.23268  eV     1   --> A''            
     e(  4 -  4) =      6.34324  eV     1   --> A'             
     e(  5 -  5) =      9.01224  eV     1   --> A'             
     e(  6 -  6) =      9.20319  eV     1   --> A'             
     e(  7 -  7) =      9.30464  eV     1   --> A''            
     e(  8 -  8) =     10.54571  eV     1   --> A'             
     e(  9 -  9) =     13.82051  eV     1   --> A'             
     e( 10 - 10) =     14.13924  eV     1   --> A''            
     e( 11 - 11) =     14.82624  eV     1   --> A'             
     e( 12 - 12) =     17.56542  eV     1   --> A'             
     e( 13 - 13) =     18.09591  eV     1   --> A''            
     e( 14 - 14) =     18.35211  eV     1   --> A'             
     e( 15 - 15) =     22.52986  eV     1   --> A'             
     e( 16 - 16) =     28.84381  eV     1   --> A''            

 **************************************************************************

 **************************************************************************

                    xk=(   0.04688,   0.04688,   0.09375  )

     Band symmetry, C_s (m)     point group:

     e(  1 -  1) =     -5.59516  eV     1   --> A'             
     e(  2 -  2) =      5.90522  eV     1   --> A'             
     e(  3 -  3) =      6.28589  eV     1   --> A''            
     e(  4 -  4) =      6.37245  eV     1   --> A'             
     e(  5 -  5) =      9.01223  eV     1   --> A'             
     e(  6 -  6) =      9.17091  eV     1   --> A'             
     e(  7 -  7) =      9.23160  eV     1   --> A''            
     e(  8 -  8) =     10.40975  eV     1   --> A'             
     e(  9 -  9) =     13.91320  eV     1   --> A'             
     e( 10 - 10) =     14.15806  eV     1   --> A''            
     e( 11 - 11) =     14.73930  eV     1   --> A'             
     e( 12 - 12) =     17.61114  eV     1   --> A'             
     e( 13 - 13) =     18.01125  eV     1   --> A''            
     e( 14 - 14) =     18.20947  eV     1   --> A'             
     e( 15 - 15) =     22.39319  eV     1   --> A'             
     e( 16 - 16) =     29.10118  eV     1   --> A''            

 **************************************************************************

 **************************************************************************

                    xk=(   0.03906,   0.03906,   0.07812  )

     Band symmetry, C_s (m)     point group:

     e(  1 -  1) =     -5.61304  eV     1   --> A'             
     e(  2 -  2) =      6.05489  eV     1   --> A'             
     e(  3 -  3) =      6.33359  eV     1   --> A''            
     e(  4 -  4) =      6.39727  eV     1   --> A'             
     e(  5 -  5) =      9.01146  eV     1   --> A'             
     e(  6 -  6) =      9.13636  eV     1   --> A'             
     e(  7 -  7) =      9.16668  eV     1   --> A''            
     e(  8 -  8) =     10.29093  eV     1   --> A'             
     e(  9 -  9) =     13.99886  eV     1   --> A'             
     e( 10 - 10) =     14.17593  eV     1   --> A''            
     e( 11 - 11) =     14.66391  eV     1   --> A'             
     e( 12 - 12) =     17.65375  eV     1   --> A'             
     e( 13 - 13) =     17.93804  eV     1   --> A''            
     e( 14 - 14) =     18.08261  eV     1   --> A'             
     e( 15 - 15) =     22.27395  eV     1   --> A'             
     e( 16 - 16) =     29.33000  eV     1   -->   ?

 **************************************************************************

 **************************************************************************

                    xk=(   0.03125,   0.03125,   0.06250  )

     Band symmetry, C_s (m)     point group:

     e(  1 -  1) =     -5.62757  eV     1   --> A'             
     e(  2 -  2) =      6.18764  eV     1   --> A'             
     e(  3 -  3) =      6.37599  eV     1   --> A''            
     e(  4 -  4) =      6.41800  eV     1   --> A'             
     e(  5 -  5) =      9.01025  eV     1   --> A'             
     e(  6 -  6) =      9.10033  eV     1   --> A'             
     e(  7 -  7) =      9.11120  eV     1   --> A''            
     e(  8 -  8) =     10.19213  eV     1   --> A'             
     e(  9 -  9) =     14.07463  eV     1   --> A'             
     e( 10 - 10) =     14.19202  eV     1   --> A''            
     e( 11 - 11) =     14.60100  eV     1   --> A'             
     e( 12 - 12) =     17.69197  eV     1   --> A'             
     e( 13 - 13) =     17.87964  eV     1   --> A''            
     e( 14 - 14) =     17.97477  eV     1   --> A'             
     e( 15 - 15) =     22.17372  eV     1   --> A'             
     e( 16 - 16) =     29.52484  eV     1   -->   ?

 **************************************************************************

 **************************************************************************

                    xk=(   0.02344,   0.02344,   0.04688  )

     Band symmetry, C_s (m)     point group:

     e(  1 -  1) =     -5.63896  eV     1   --> A'             
     e(  2 -  2) =      6.29840  eV     1   --> A'             
     e(  3 -  3) =      6.40938  eV     1   --> A''            
     e(  4 -  4) =      6.43388  eV     1   --> A'             
     e(  5 -  5) =      9.00889  eV     1   --> A'             
     e(  6 -  6) =      9.06517  eV     1   --> A'             
     e(  7 -  7) =      9.06643  eV     1   --> A''            
     e(  8 -  8) =     10.11519  eV     1   --> A'             
     e(  9 -  9) =     14.13738  eV     1   --> A'             
     e( 10 - 10) =     14.20538  eV     1   --> A''            
     e( 11 - 11) =     14.55128  eV     1   --> A'             
     e( 12 - 12) =     17.72328  eV     1   --> A'             
     e( 13 - 13) =     17.83136  eV     1   --> A''            
     e( 14 - 14) =     17.88671  eV     1   --> A'             
     e( 15 - 15) =     22.09390  eV     1   --> A'             
     e( 16 - 16) =     29.67217  eV     1   -->   ?

 **************************************************************************

 **************************************************************************

                    xk=(   0.01562,   0.01562,   0.03125  )

     Band symmetry, C_s (m)     point group:

     e(  1 -  1) =     -5.64704  eV     1   --> A'             
     e(  2 -  2) =      6.38351  eV     1   --> A'             
     e(  3 -  3) =      6.43406  eV     1   --> A''            
     e(  4 -  4) =      6.44525  eV     1   --> A'             
     e(  5 -  5) =      9.00769  eV     1   --> A'             
     e(  6 -  6) =      9.03352  eV     1   --> A''            
     e(  7 -  7) =      9.03484  eV     1   --> A'             
     e(  8 -  8) =     10.06073  eV     1   --> A'             
     e(  9 -  9) =     14.18454  eV     1   --> A'             
     e( 10 - 10) =     14.21543  eV     1   --> A''            
     e( 11 - 11) =     14.51535  eV     1   --> A'             
     e( 12 - 12) =     17.74879  eV     1   --> A'             
     e( 13 - 13) =     17.79645  eV     1   --> A''            
     e( 14 - 14) =     17.82168  eV     1   --> A'             
     e( 15 - 15) =     22.03585  eV     1   --> A'             
     e( 16 - 16) =     29.79504  eV     1   -->   ?

 **************************************************************************

 **************************************************************************

                    xk=(   0.00781,   0.00781,   0.01562  )

     Band symmetry, C_s (m)     point group:

     e(  1 -  1) =     -5.65192  eV     1   --> A'             
     e(  2 -  2) =      6.43631  eV     1   --> A'             
     e(  3 -  3) =      6.44922  eV     1   --> A''            
     e(  4 -  4) =      6.45207  eV     1   --> A'             
     e(  5 -  5) =      9.00688  eV     1   --> A'             
     e(  6 -  6) =      9.01337  eV     1   --> A''            
     e(  7 -  7) =      9.01402  eV     1   --> A'             
     e(  8 -  8) =     10.02846  eV     1   --> A'             
     e(  9 -  9) =     14.21385  eV     1   --> A'             
     e( 10 - 10) =     14.22168  eV     1   --> A''            
     e( 11 - 11) =     14.49362  eV     1   --> A'             
     e( 12 - 12) =     17.76332  eV     1   --> A'             
     e( 13 - 13) =     17.77532  eV     1   --> A''            
     e( 14 - 14) =     17.78173  eV     1   --> A'             
     e( 15 - 15) =     22.00056  eV     1   --> A'             
     e( 16 - 16) =     29.86451  eV     1   -->   ?

 **************************************************************************

 **************************************************************************

                    xk=(   0.00000,   0.00000,   0.00000  )

     point group O_h (m-3m) 
     there are 10 classes
     the character table:

       E     8C3   3C2   6C4   6C2'  i     8S6   3s_h  6S4   6s_d 
A_1g   1.00  1.00  1.00  1.00  1.00  1.00  1.00  1.00  1.00  1.00
A_2g   1.00  1.00  1.00 -1.00 -1.00  1.00  1.00  1.00 -1.00 -1.00
E_g    2.00 -1.00  2.00  0.00  0.00  2.00 -1.00  2.00  0.00  0.00
T_1g   3.00  0.00 -1.00  1.00 -1.00  3.00  0.00 -1.00  1.00 -1.00
T_2g   3.00  0.00 -1.00 -1.00  1.00  3.00  0.00 -1.00 -1.00  1.00
A_1u   1.00  1.00  1.00  1.00  1.00 -1.00 -1.00 -1.00 -1.00 -1.00
A_2u   1.00  1.00  1.00 -1.00 -1.00 -1.00 -1.00 -1.00  1.00  1.00
E_u    2.00 -1.00  2.00  0.00  0.00 -2.00  1.00 -2.00  0.00  0.00
T_1u   3.00  0.00 -1.00  1.00 -1.00 -3.00  0.00  1.00 -1.00  1.00
T_2u   3.00  0.00 -1.00 -1.00  1.00 -3.00  0.00  1.00  1.00 -1.00

     the symmetry operations in each class and the name of the first element:

     E        1
                                                                 
     8C3     17   19   20   18   24   21   22   23
                                                                 
     3C2      2    4    3
                                                                 
     6C4      7    8   15   16   12   11
                                                                 
     6C2'     5    6   14   13   10    9
                                                                 
     i       25
                                                                 
     8S6     41   43   44   42   48   45   46   47
                                                                 
     3s_h    26   28   27
                                                                 
     6S4     31   32   39   40   36   35
                                                                 
     6s_d    29   30   38   37   34   33
                                                                 

     Band symmetry, O_h (m-3m)  point group:

     e(  1 -  1) =     -5.65355  eV     1   --> A_1g G_1   G_1+
     e(  2 -  4) =      6.45434  eV     3   --> T_2g G_25' G_5+
     e(  5 -  7) =      9.00659  eV     3   --> T_1u G_15  G_4-
     e(  8 -  8) =     10.01779  eV     1   --> A_2u G_2'  G_2-
     e(  9 - 10) =     14.22380  eV     2   --> E_u  G_12' G_3-
     e( 11 - 11) =     14.48635  eV     1   --> A_1g G_1   G_1+
     e( 12 - 14) =     17.76824  eV     3   --> T_2g G_25' G_5+
     e( 15 - 15) =     21.98872  eV     1   --> A_2u G_2'  G_2-
     e( 16 - 16) =     29.88812  eV     1   -->   ?

 **************************************************************************

 **************************************************************************

                    xk=(   0.01282,   0.01282,   0.01282  )

     point group C_3v (3m)  
     there are  3 classes
     the character table:

       E     2C3   3s_v 
A_1    1.00  1.00  1.00
A_2    1.00  1.00 -1.00
E      2.00 -1.00  0.00

     the symmetry operations in each class and the name of the first element:

     E        1
                                                                 
     2C3      2    3
                                                                 
     3s_v     4    5    6
                                                                 

     Band symmetry, C_3v (3m)   point group:

     e(  1 -  1) =     -5.65136  eV     1   --> A_1  L_1       
     e(  2 -  2) =      6.42803  eV     1   --> A_1  L_1       
     e(  3 -  4) =      6.45042  eV     2   --> E    L_3       
     e(  5 -  6) =      9.01228  eV     2   --> E    L_3       
     e(  7 -  7) =      9.01461  eV     1   --> A_1  L_1       
     e(  8 -  8) =     10.03220  eV     1   --> A_1  L_1       
     e(  9 - 10) =     14.21568  eV     2   --> E    L_3       
     e( 11 - 11) =     14.49614  eV     1   --> A_1  L_1       
     e( 12 - 12) =     17.75890  eV     1   --> A_1  L_1       
     e( 13 - 14) =     17.78344  eV     2   --> E    L_3       
     e( 15 - 15) =     22.00464  eV     1   --> A_1  L_1       
     e( 16 - 16) =     29.85938  eV     1   --> A_1  L_1       

 **************************************************************************

 **************************************************************************

                    xk=(   0.02564,   0.02564,   0.02564  )

     Band symmetry, C_3v (3m)   point group:

     e(  1 -  1) =     -5.64484  eV     1   --> A_1  L_1       
     e(  2 -  2) =      6.35070  eV     1   --> A_1  L_1       
     e(  3 -  4) =      6.43880  eV     2   --> E    L_3       
     e(  5 -  6) =      9.02918  eV     2   --> E    L_3       
     e(  7 -  7) =      9.03524  eV     1   --> A_1  L_1       
     e(  8 -  8) =     10.07634  eV     1   --> A_1  L_1       
     e(  9 - 10) =     14.19189  eV     2   --> E    L_3       
     e( 11 - 11) =     14.52533  eV     1   --> A_1  L_1       
     e( 12 - 12) =     17.72940  eV     1   --> A_1  L_1       
     e( 13 - 14) =     17.82851  eV     2   --> E    L_3       
     e( 15 - 15) =     22.05189  eV     1   --> A_1  L_1       
     e( 16 - 16) =     29.76186  eV     1   --> A_1  L_1       

 **************************************************************************

 **************************************************************************

                    xk=(   0.03846,   0.03846,   0.03846  )

     Band symmetry, C_3v (3m)   point group:

     e(  1 -  1) =     -5.63388  eV     1   --> A_1  L_1       
     e(  2 -  2) =      6.23107  eV     1   --> A_1  L_1       
     e(  3 -  4) =      6.41986  eV     2   --> E    L_3       
     e(  5 -  6) =      9.05678  eV     2   --> E    L_3       
     e(  7 -  7) =      9.06017  eV     1   --> A_1  L_1       
     e(  8 -  8) =     10.15203  eV     1   --> A_1  L_1       
     e(  9 - 10) =     14.15394  eV     2   --> E    L_3       
     e( 11 - 11) =     14.57347  eV     1   --> A_1  L_1       
     e( 12 - 12) =     17.68543  eV     1   --> A_1  L_1       
     e( 13 - 14) =     17.90203  eV     2   --> E    L_3       
     e( 15 - 15) =     22.12902  eV     1   --> A_1  L_1       
     e( 16 - 16) =     29.63307  eV     1   --> A_1  L_1       

 **************************************************************************

 **************************************************************************

                    xk=(   0.05128,   0.05128,   0.05128  )

     Band symmetry, C_3v (3m)   point group:

     e(  1 -  1) =     -5.61855  eV     1   --> A_1  L_1       
     e(  2 -  2) =      6.07655  eV     1   --> A_1  L_1       
     e(  3 -  4) =      6.39419  eV     2   --> E    L_3       
     e(  5 -  5) =      9.08061  eV     1   --> A_1  L_1       
     e(  6 -  7) =      9.09430  eV     2   --> E    L_3       
     e(  8 -  8) =     10.26001  eV     1   --> A_1  L_1       
     e(  9 - 10) =     14.10411  eV     2   --> E    L_3       
     e( 11 - 11) =     14.63973  eV     1   --> A_1  L_1       
     e( 12 - 12) =     17.62745  eV     1   --> A_1  L_1       
     e( 13 - 14) =     18.00187  eV     2   --> E    L_3       
     e( 15 - 15) =     22.23386  eV     1   --> A_1  L_1       
     e( 16 - 16) =     29.46758  eV     1   --> A_1  L_1       

 **************************************************************************

 **************************************************************************

                    xk=(   0.06410,   0.06410,   0.06410  )

     Band symmetry, C_3v (3m)   point group:

     e(  1 -  1) =     -5.59886  eV     1   --> A_1  L_1       
     e(  2 -  2) =      5.89526  eV     1   --> A_1  L_1       
     e(  3 -  4) =      6.36254  eV     2   --> E    L_3       
     e(  5 -  5) =      9.09083  eV     1   --> A_1  L_1       
     e(  6 -  7) =      9.14071  eV     2   --> E    L_3       
     e(  8 -  8) =     10.39840  eV     1   --> A_1  L_1       
     e(  9 - 10) =     14.04514  eV     2   --> E    L_3       
     e( 11 - 11) =     14.72296  eV     1   --> A_1  L_1       
     e( 12 - 12) =     17.55858  eV     1   --> A_1  L_1       
     e( 13 - 14) =     18.12552  eV     2   --> E    L_3       
     e( 15 - 15) =     22.36382  eV     1   --> A_1  L_1       
     e( 16 - 16) =     29.27420  eV     1   --> A_1  L_1       

 **************************************************************************

 **************************************************************************

                    xk=(   0.07692,   0.07692,   0.07692  )

     Band symmetry, C_3v (3m)   point group:

     e(  1 -  1) =     -5.57499  eV     1   --> A_1  L_1       
     e(  2 -  2) =      5.69376  eV     1   --> A_1  L_1       
     e(  3 -  4) =      6.32445  eV     2   --> E    L_3       
     e(  5 -  5) =      9.08881  eV     1   --> A_1  L_1       
     e(  6 -  7) =      9.19479  eV     2   --> E    L_3       
     e(  8 -  8) =     10.56288  eV     1   --> A_1  L_1       
     e(  9 - 10) =     13.97961  eV     2   --> E    L_3       
     e( 11 - 11) =     14.82152  eV     1   --> A_1  L_1       
     e( 12 - 12) =     17.48163  eV     1   --> A_1  L_1       
     e( 13 - 14) =     18.26784  eV     2   --> E    L_3       
     e( 15 - 15) =     22.51608  eV     1   --> A_1  L_1       
     e( 16 - 16) =     29.01580  eV     1   -->   ?

 **************************************************************************

 **************************************************************************

                    xk=(   0.08974,   0.08974,   0.08974  )

     Band symmetry, C_3v (3m)   point group:

     e(  1 -  1) =     -5.54661  eV     1   --> A_1  L_1       
     e(  2 -  2) =      5.47790  eV     1   --> A_1  L_1       
     e(  3 -  4) =      6.28336  eV     2   --> E    L_3       
     e(  5 -  5) =      9.07542  eV     1   --> A_1  L_1       
     e(  6 -  7) =      9.25523  eV     2   --> E    L_3       
     e(  8 -  8) =     10.74808  eV     1   --> A_1  L_1       
     e(  9 - 10) =     13.91093  eV     2   --> E    L_3       
     e( 11 - 11) =     14.93331  eV     1   --> A_1  L_1       
     e( 12 - 12) =     17.40207  eV     1   --> A_1  L_1       
     e( 13 - 14) =     18.43141  eV     2   --> E    L_3       
     e( 15 - 15) =     22.68791  eV     1   --> A_1  L_1       
     e( 16 - 16) =     28.72110  eV     1   -->   ?

 **************************************************************************

 **************************************************************************

                    xk=(   0.10256,   0.10256,   0.10256  )

     Band symmetry, C_3v (3m)   point group:

     e(  1 -  1) =     -5.51393  eV     1   --> A_1  L_1       
     e(  2 -  2) =      5.25146  eV     1   --> A_1  L_1       
     e(  3 -  4) =      6.23882  eV     2   --> E    L_3       
     e(  5 -  5) =      9.05233  eV     1   --> A_1  L_1       
     e(  6 -  7) =      9.32062  eV     2   --> E    L_3       
     e(  8 -  8) =     10.94883  eV     1   --> A_1  L_1       
     e(  9 - 10) =     13.84162  eV     2   --> E    L_3       
     e( 11 - 11) =     15.05538  eV     1   --> A_1  L_1       
     e( 12 - 12) =     17.32365  eV     1   --> A_1  L_1       
     e( 13 - 14) =     18.61134  eV     2   --> E    L_3       
     e( 15 - 15) =     22.87659  eV     1   --> A_1  L_1       
     e( 16 - 16) =     28.40385  eV     1   -->   ?

 **************************************************************************

 **************************************************************************

                    xk=(   0.11538,   0.11538,   0.11538  )

     Band symmetry, C_3v (3m)   point group:

     e(  1 -  1) =     -5.47696  eV     1   --> A_1  L_1       
     e(  2 -  2) =      5.01752  eV     1   --> A_1  L_1       
     e(  3 -  4) =      6.19160  eV     2   --> E    L_3       
     e(  5 -  5) =      9.02150  eV     1   --> A_1  L_1       
     e(  6 -  7) =      9.38951  eV     2   --> E    L_3       
     e(  8 -  8) =     11.16080  eV     1   --> A_1  L_1       
     e(  9 - 10) =     13.77424  eV     2   --> E    L_3       
     e( 11 - 11) =     15.18372  eV     1   --> A_1  L_1       
     e( 12 - 12) =     17.25167  eV     1   --> A_1  L_1       
     e( 13 - 14) =     18.80555  eV     2   --> E    L_3       
     e( 15 - 15) =     23.07952  eV     1   --> A_1  L_1       
     e( 16 - 16) =     28.07110  eV     1   -->   ?

 **************************************************************************

 **************************************************************************

                    xk=(   0.12821,   0.12821,   0.12821  )

     Band symmetry, C_3v (3m)   point group:

     e(  1 -  1) =     -5.43573  eV     1   --> A_1  L_1       
     e(  2 -  2) =      4.77838  eV     1   --> A_1  L_1       
     e(  3 -  4) =      6.14245  eV     2   --> E    L_3       
     e(  5 -  5) =      8.98468  eV     1   --> A_1  L_1       
     e(  6 -  7) =      9.46039  eV     2   --> E    L_3       
     e(  8 -  8) =     11.38058  eV     1   --> A_1  L_1       
     e(  9 - 10) =     13.71119  eV     2   --> E    L_3       
     e( 11 - 11) =     15.31272  eV     1   --> A_1  L_1       
     e( 12 - 12) =     17.19269  eV     1   --> A_1  L_1       
     e( 13 - 14) =     19.01218  eV     2   --> E    L_3       
     e( 15 - 15) =     23.29414  eV     1   --> A_1  L_1       
     e( 16 - 16) =     27.72801  eV     1   -->   ?

 **************************************************************************

 **************************************************************************

                    xk=(   0.14103,   0.14103,   0.14103  )

     Band symmetry, C_3v (3m)   point group:

     e(  1 -  1) =     -5.39027  eV     1   --> A_1  L_1       
     e(  2 -  2) =      4.53583  eV     1   --> A_1  L_1       
     e(  3 -  4) =      6.09199  eV     2   --> E    L_3       
     e(  5 -  5) =      8.94338  eV     1   --> A_1  L_1       
     e(  6 -  7) =      9.53175  eV     2   --> E    L_3       
     e(  8 -  8) =     11.60557  eV     1   --> A_1  L_1       
     e(  9 - 10) =     13.65469  eV     2   --> E    L_3       
     e( 11 - 11) =     15.43474  eV     1   --> A_1  L_1       
     e( 12 - 12) =     17.15510  eV     1   --> A_1  L_1       
     e( 13 - 14) =     19.22955  eV     2   --> E    L_3       
     e( 15 - 15) =     23.51773  eV     1   --> A_1  L_1       
     e( 16 - 16) =     27.37847  eV     1   -->   ?

 **************************************************************************

 **************************************************************************

                    xk=(   0.15385,   0.15385,   0.15385  )

     Band symmetry, C_3v (3m)   point group:

     e(  1 -  1) =     -5.34064  eV     1   --> A_1  L_1       
     e(  2 -  2) =      4.29123  eV     1   --> A_1  L_1       
     e(  3 -  4) =      6.04080  eV     2   --> E    L_3       
     e(  5 -  5) =      8.89880  eV     1   --> A_1  L_1       
     e(  6 -  7) =      9.60208  eV     2   --> E    L_3       
     e(  8 -  8) =     11.83379  eV     1   --> A_1  L_1       
     e(  9 - 10) =     13.60682  eV     2   --> E    L_3       
     e( 11 - 11) =     15.54013  eV     1   --> A_1  L_1       
     e( 12 - 12) =     17.14904  eV     1   --> A_1  L_1       
     e( 13 - 14) =     19.45611  eV     2   --> E    L_3       
     e( 15 - 15) =     23.74715  eV     1   --> A_1  L_1       
     e( 16 - 16) =     27.02548  eV     1   -->   ?

 **************************************************************************

 **************************************************************************

                    xk=(   0.16667,   0.16667,   0.16667  )

     Band symmetry, C_3v (3m)   point group:

     e(  1 -  1) =     -5.28696  eV     1   --> A_1  L_1       
     e(  2 -  2) =      4.04476  eV     1   --> A_1  L_1       
     e(  3 -  4) =      5.98929  eV     2   --> E    L_3       
     e(  5 -  5) =      8.85155  eV     1   --> A_1  L_1       
     e(  6 -  7) =      9.66958  eV     2   --> E    L_3       
[...]
     e(  2 -  2) =     -0.12905  eV     1   --> A              
     e(  3 -  3) =      2.76698  eV     1   --> A              
     e(  4 -  4) =      4.46078  eV     1   --> A              
     e(  5 -  5) =      9.04510  eV     1   --> A              
     e(  6 -  6) =     10.28640  eV     1   --> A              
     e(  7 -  7) =     12.31074  eV     1   --> A              
     e(  8 -  8) =     13.13417  eV     1   --> A              
     e(  9 -  9) =     14.59720  eV     1   --> A              
     e( 10 - 10) =     15.71777  eV     1   --> A              
     e( 11 - 11) =     18.48154  eV     1   --> A              
     e( 12 - 12) =     20.50705  eV     1   --> A              
     e( 13 - 13) =     21.46527  eV     1   --> A              
     e( 14 - 14) =     22.58386  eV     1   --> A              
     e( 15 - 15) =     23.41199  eV     1   --> A              
     e( 16 - 16) =     25.48273  eV     1   --> A              

 **************************************************************************

 **************************************************************************

                    xk=(   0.50000,   0.14773,   0.64773  )

     Band symmetry, C_1 (1)     point group:

     e(  1 -  1) =     -2.96105  eV     1   --> A              
     e(  2 -  2) =     -0.06030  eV     1   --> A              
     e(  3 -  3) =      2.73399  eV     1   --> A              
     e(  4 -  4) =      4.50926  eV     1   --> A              
     e(  5 -  5) =      8.99940  eV     1   --> A              
     e(  6 -  6) =     10.38594  eV     1   --> A              
     e(  7 -  7) =     12.28049  eV     1   --> A              
     e(  8 -  8) =     13.07087  eV     1   --> A              
     e(  9 -  9) =     14.70296  eV     1   --> A              
     e( 10 - 10) =     15.47933  eV     1   --> A              
     e( 11 - 11) =     18.53102  eV     1   --> A              
     e( 12 - 12) =     20.76066  eV     1   --> A              
     e( 13 - 13) =     21.36417  eV     1   --> A              
     e( 14 - 14) =     22.44947  eV     1   --> A              
     e( 15 - 15) =     23.39681  eV     1   --> A              
     e( 16 - 16) =     25.38536  eV     1   --> A              

 **************************************************************************

 **************************************************************************

                    xk=(   0.50000,   0.13636,   0.63636  )

     Band symmetry, C_1 (1)     point group:

     e(  1 -  1) =     -3.00619  eV     1   --> A              
     e(  2 -  2) =      0.01299  eV     1   --> A              
     e(  3 -  3) =      2.70117  eV     1   --> A              
     e(  4 -  4) =      4.55948  eV     1   --> A              
     e(  5 -  5) =      8.95917  eV     1   --> A              
     e(  6 -  6) =     10.48701  eV     1   --> A              
     e(  7 -  7) =     12.24794  eV     1   --> A              
     e(  8 -  8) =     13.01163  eV     1   --> A              
     e(  9 -  9) =     14.80867  eV     1   --> A              
     e( 10 - 10) =     15.24490  eV     1   --> A              
     e( 11 - 11) =     18.58790  eV     1   --> A              
     e( 12 - 12) =     21.00615  eV     1   --> A              
     e( 13 - 13) =     21.26687  eV     1   --> A              
     e( 14 - 14) =     22.28222  eV     1   --> A              
     e( 15 - 15) =     23.42535  eV     1   --> A              
     e( 16 - 16) =     25.27001  eV     1   --> A              

 **************************************************************************

 **************************************************************************

                    xk=(   0.50000,   0.12500,   0.62500  )

     Band symmetry, C_1 (1)     point group:

     e(  1 -  1) =     -3.05306  eV     1   --> A              
     e(  2 -  2) =      0.08995  eV     1   --> A              
     e(  3 -  3) =      2.66923  eV     1   --> A              
     e(  4 -  4) =      4.61063  eV     1   --> A              
     e(  5 -  5) =      8.92338  eV     1   --> A              
     e(  6 -  6) =     10.58795  eV     1   --> A              
     e(  7 -  7) =     12.21171  eV     1   --> A              
     e(  8 -  8) =     12.95512  eV     1   --> A              
     e(  9 -  9) =     14.88261  eV     1   --> A              
     e( 10 - 10) =     15.04345  eV     1   --> A              
     e( 11 - 11) =     18.64707  eV     1   --> A              
     e( 12 - 12) =     21.14128  eV     1   --> A              
     e( 13 - 13) =     21.25523  eV     1   --> A              
     e( 14 - 14) =     22.11359  eV     1   --> A              
     e( 15 - 15) =     23.47384  eV     1   --> A              
     e( 16 - 16) =     25.13603  eV     1   --> A              

 **************************************************************************

 **************************************************************************

                    xk=(   0.50000,   0.11364,   0.61364  )

     Band symmetry, C_1 (1)     point group:

     e(  1 -  1) =     -3.10110  eV     1   --> A              
     e(  2 -  2) =      0.16977  eV     1   --> A              
     e(  3 -  3) =      2.63897  eV     1   --> A              
     e(  4 -  4) =      4.66214  eV     1   --> A              
     e(  5 -  5) =      8.89284  eV     1   --> A              
     e(  6 -  6) =     10.68867  eV     1   --> A              
     e(  7 -  7) =     12.17276  eV     1   --> A              
     e(  8 -  8) =     12.90235  eV     1   --> A              
     e(  9 -  9) =     14.73749  eV     1   --> A              
     e( 10 - 10) =     15.06513  eV     1   --> A              
     e( 11 - 11) =     18.71048  eV     1   --> A              
     e( 12 - 12) =     21.04556  eV     1   --> A              
     e( 13 - 13) =     21.40506  eV     1   --> A              
     e( 14 - 14) =     22.00260  eV     1   --> A              
     e( 15 - 15) =     23.53163  eV     1   --> A              
     e( 16 - 16) =     24.99163  eV     1   --> A              

 **************************************************************************

 **************************************************************************

                    xk=(   0.50000,   0.10227,   0.60227  )

     Band symmetry, C_1 (1)     point group:

     e(  1 -  1) =     -3.14991  eV     1   --> A              
     e(  2 -  2) =      0.25163  eV     1   --> A              
     e(  3 -  3) =      2.61106  eV     1   --> A              
     e(  4 -  4) =      4.71337  eV     1   --> A              
     e(  5 -  5) =      8.86751  eV     1   --> A              
     e(  6 -  6) =     10.78831  eV     1   --> A              
     e(  7 -  7) =     12.13069  eV     1   --> A              
     e(  8 -  8) =     12.85319  eV     1   --> A              
     e(  9 -  9) =     14.51149  eV     1   --> A              
     e( 10 - 10) =     15.17029  eV     1   --> A              
     e( 11 - 11) =     18.77736  eV     1   --> A              
     e( 12 - 12) =     20.93791  eV     1   --> A              
     e( 13 - 13) =     21.39777  eV     1   --> A              
     e( 14 - 14) =     22.05144  eV     1   --> A              
     e( 15 - 15) =     23.59153  eV     1   --> A              
     e( 16 - 16) =     24.84198  eV     1   --> A              

 **************************************************************************

 **************************************************************************

                    xk=(   0.50000,   0.09091,   0.59091  )

     Band symmetry, C_1 (1)     point group:

     e(  1 -  1) =     -3.19909  eV     1   --> A              
     e(  2 -  2) =      0.33478  eV     1   --> A              
     e(  3 -  3) =      2.58635  eV     1   --> A              
     e(  4 -  4) =      4.76377  eV     1   --> A              
     e(  5 -  5) =      8.84823  eV     1   --> A              
     e(  6 -  6) =     10.88462  eV     1   --> A              
     e(  7 -  7) =     12.08663  eV     1   --> A              
     e(  8 -  8) =     12.80987  eV     1   --> A              
     e(  9 -  9) =     14.28544  eV     1   --> A              
     e( 10 - 10) =     15.28313  eV     1   --> A              
     e( 11 - 11) =     18.84771  eV     1   --> A              
     e( 12 - 12) =     20.82859  eV     1   --> A              
     e( 13 - 13) =     21.25563  eV     1   --> A              
     e( 14 - 14) =     22.23605  eV     1   --> A              
     e( 15 - 15) =     23.65013  eV     1   --> A              
     e( 16 - 16) =     24.69403  eV     1   --> A              

 **************************************************************************

 **************************************************************************

                    xk=(   0.50000,   0.07955,   0.57955  )

     Band symmetry, C_1 (1)     point group:

     e(  1 -  1) =     -3.24831  eV     1   --> A              
     e(  2 -  2) =      0.41807  eV     1   --> A              
     e(  3 -  3) =      2.56564  eV     1   --> A              
     e(  4 -  4) =      4.81301  eV     1   --> A              
     e(  5 -  5) =      8.83451  eV     1   --> A              
     e(  6 -  6) =     10.97838  eV     1   --> A              
     e(  7 -  7) =     12.04018  eV     1   --> A              
     e(  8 -  8) =     12.77070  eV     1   --> A              
     e(  9 -  9) =     14.06452  eV     1   --> A              
     e( 10 - 10) =     15.39843  eV     1   --> A              
     e( 11 - 11) =     18.92000  eV     1   --> A              
     e( 12 - 12) =     20.71512  eV     1   --> A              
     e( 13 - 13) =     21.07015  eV     1   --> A              
     e( 14 - 14) =     22.46232  eV     1   --> A              
     e( 15 - 15) =     23.69849  eV     1   --> A              
     e( 16 - 16) =     24.54956  eV     1   --> A              

 **************************************************************************

 **************************************************************************

                    xk=(   0.50000,   0.06818,   0.56818  )

     Band symmetry, C_1 (1)     point group:

     e(  1 -  1) =     -3.29729  eV     1   --> A              
     e(  2 -  2) =      0.50068  eV     1   --> A              
     e(  3 -  3) =      2.54977  eV     1   --> A              
     e(  4 -  4) =      4.86072  eV     1   --> A              
     e(  5 -  5) =      8.82669  eV     1   --> A              
     e(  6 -  6) =     11.06699  eV     1   --> A              
     e(  7 -  7) =     11.99122  eV     1   --> A              
     e(  8 -  8) =     12.73799  eV     1   --> A              
     e(  9 -  9) =     13.85132  eV     1   --> A              
     e( 10 - 10) =     15.51556  eV     1   --> A              
     e( 11 - 11) =     18.99320  eV     1   --> A              
     e( 12 - 12) =     20.59852  eV     1   --> A              
     e( 13 - 13) =     20.87585  eV     1   --> A              
     e( 14 - 14) =     22.69925  eV     1   --> A              
     e( 15 - 15) =     23.73193  eV     1   --> A              
     e( 16 - 16) =     24.41774  eV     1   --> A              

 **************************************************************************

 **************************************************************************

                    xk=(   0.50000,   0.05682,   0.55682  )

     Band symmetry, C_1 (1)     point group:

     e(  1 -  1) =     -3.34580  eV     1   --> A              
     e(  2 -  2) =      0.58158  eV     1   --> A              
     e(  3 -  3) =      2.53960  eV     1   --> A              
     e(  4 -  4) =      4.90619  eV     1   --> A              
     e(  5 -  5) =      8.82488  eV     1   --> A              
     e(  6 -  6) =     11.14680  eV     1   --> A              
     e(  7 -  7) =     11.93953  eV     1   --> A              
     e(  8 -  8) =     12.71218  eV     1   --> A              
     e(  9 -  9) =     13.64654  eV     1   --> A              
     e( 10 - 10) =     15.63271  eV     1   --> A              
     e( 11 - 11) =     19.06536  eV     1   --> A              
     e( 12 - 12) =     20.47843  eV     1   --> A              
     e( 13 - 13) =     20.68417  eV     1   --> A              
     e( 14 - 14) =     22.93010  eV     1   --> A              
     e( 15 - 15) =     23.73992  eV     1   --> A              
     e( 16 - 16) =     24.30572  eV     1   --> A              

 **************************************************************************

 **************************************************************************

                    xk=(   0.50000,   0.04545,   0.54545  )

     Band symmetry, C_1 (1)     point group:

     e(  1 -  1) =     -3.39365  eV     1   --> A              
     e(  2 -  2) =      0.65985  eV     1   --> A              
     e(  3 -  3) =      2.53612  eV     1   --> A              
     e(  4 -  4) =      4.94925  eV     1   --> A              
     e(  5 -  5) =      8.82939  eV     1   --> A              
     e(  6 -  6) =     11.21478  eV     1   --> A              
     e(  7 -  7) =     11.88529  eV     1   --> A              
     e(  8 -  8) =     12.69524  eV     1   --> A              
     e(  9 -  9) =     13.45412  eV     1   --> A              
     e( 10 - 10) =     15.74987  eV     1   --> A              
     e( 11 - 11) =     19.13399  eV     1   --> A              
     e( 12 - 12) =     20.35574  eV     1   --> A              
     e( 13 - 13) =     20.50291  eV     1   --> A              
     e( 14 - 14) =     23.15123  eV     1   --> A              
     e( 15 - 15) =     23.71285  eV     1   --> A              
     e( 16 - 16) =     24.22494  eV     1   --> A              

 **************************************************************************

 **************************************************************************

                    xk=(   0.50000,   0.03409,   0.53409  )

     Band symmetry, C_1 (1)     point group:

     e(  1 -  1) =     -3.44058  eV     1   --> A              
     e(  2 -  2) =      0.73410  eV     1   --> A              
     e(  3 -  3) =      2.54030  eV     1   --> A              
     e(  4 -  4) =      4.98955  eV     1   --> A              
     e(  5 -  5) =      8.83973  eV     1   --> A              
     e(  6 -  6) =     11.26685  eV     1   --> A              
     e(  7 -  7) =     11.82751  eV     1   --> A              
     e(  8 -  8) =     12.68878  eV     1   --> A              
     e(  9 -  9) =     13.27616  eV     1   --> A              
     e( 10 - 10) =     15.86655  eV     1   --> A              
     e( 11 - 11) =     19.19266  eV     1   --> A              
     e( 12 - 12) =     20.22908  eV     1   --> A              
     e( 13 - 13) =     20.33666  eV     1   --> A              
     e( 14 - 14) =     23.34927  eV     1   --> A              
     e( 15 - 15) =     23.65129  eV     1   --> A              
     e( 16 - 16) =     24.17633  eV     1   --> A              

 **************************************************************************

 **************************************************************************

                    xk=(   0.50000,   0.02273,   0.52273  )

     Band symmetry, C_1 (1)     point group:

     e(  1 -  1) =     -3.48647  eV     1   --> A              
     e(  2 -  2) =      0.80339  eV     1   --> A              
     e(  3 -  3) =      2.55310  eV     1   --> A              
     e(  4 -  4) =      5.02685  eV     1   --> A              
     e(  5 -  5) =      8.85615  eV     1   --> A              
     e(  6 -  6) =     11.29740  eV     1   --> A              
     e(  7 -  7) =     11.76736  eV     1   --> A              
     e(  8 -  8) =     12.69285  eV     1   --> A              
     e(  9 -  9) =     13.11827  eV     1   --> A              
     e( 10 - 10) =     15.98204  eV     1   --> A              
     e( 11 - 11) =     19.23308  eV     1   --> A              
     e( 12 - 12) =     20.10340  eV     1   --> A              
     e( 13 - 13) =     20.19237  eV     1   --> A              
     e( 14 - 14) =     23.47686  eV     1   --> A              
     e( 15 - 15) =     23.60559  eV     1   --> A              
     e( 16 - 16) =     24.15292  eV     1   --> A              

 **************************************************************************

 **************************************************************************

                    xk=(   0.50000,   0.01136,   0.51136  )

     Band symmetry, C_1 (1)     point group:

     e(  1 -  1) =     -3.53118  eV     1   --> A              
     e(  2 -  2) =      0.86671  eV     1   --> A              
     e(  3 -  3) =      2.57540  eV     1   --> A              
     e(  4 -  4) =      5.06095  eV     1   --> A              
     e(  5 -  5) =      8.87854  eV     1   --> A              
     e(  6 -  6) =     11.29989  eV     1   --> A              
     e(  7 -  7) =     11.70742  eV     1   --> A              
     e(  8 -  8) =     12.70165  eV     1   --> A              
     e(  9 -  9) =     12.99056  eV     1   --> A              
     e( 10 - 10) =     16.09552  eV     1   --> A              
     e( 11 - 11) =     19.24226  eV     1   --> A              
     e( 12 - 12) =     19.97931  eV     1   --> A              
     e( 13 - 13) =     20.08337  eV     1   --> A              
     e( 14 - 14) =     23.41333  eV     1   --> A              
     e( 15 - 15) =     23.69439  eV     1   --> A              
     e( 16 - 16) =     24.15200  eV     1   --> A              

 **************************************************************************

 **************************************************************************

                    xk=(   0.50000,   0.00000,   0.50000  )

     point group C_2v (mm2) 
     there are  4 classes
     the character table:

       E     C2    s_v   s_v' 
A_1    1.00  1.00  1.00  1.00
A_2    1.00  1.00 -1.00 -1.00
B_1    1.00 -1.00  1.00 -1.00
B_2    1.00 -1.00 -1.00  1.00

     the symmetry operations in each class and the name of the first element:

     E        1
                                                                 
     C2       2
                                                                 
     s_v      3
                                                                 
     s_v'     4
                                                                 

     Band symmetry, C_2v (mm2)  point group:

     e(  1 -  1) =     -3.57458  eV     1   --> A_1  D_1  S_1  
     e(  2 -  2) =      0.92325  eV     1   --> B_2  D_4  S_4  
     e(  3 -  3) =      2.60787  eV     1   --> A_1  D_1  S_1  
     e(  4 -  4) =      5.09202  eV     1   --> A_2  D_2  S_2  
     e(  5 -  5) =      8.90678  eV     1   --> B_2  D_4  S_4  
     e(  6 -  6) =     11.26824  eV     1   --> B_1  D_3  S_3  
     e(  7 -  7) =     11.65228  eV     1   --> A_1  D_1  S_1  
     e(  8 -  8) =     12.69083  eV     1   --> B_2  D_4  S_4  
     e(  9 -  9) =     12.92000  eV     1   --> A_2  D_2  S_2  
     e( 10 - 10) =     16.20636  eV     1   --> A_1  D_1  S_1  
     e( 11 - 11) =     19.20914  eV     1   --> B_2  D_4  S_4  
     e( 12 - 12) =     19.84842  eV     1   --> B_2  D_4  S_4  
     e( 13 - 13) =     20.03060  eV     1   --> A_1  D_1  S_1  
     e( 14 - 14) =     23.30395  eV     1   --> A_1  D_1  S_1  
     e( 15 - 15) =     23.76888  eV     1   --> A_2  D_2  S_2  
     e( 16 - 16) =     24.18523  eV     1   --> B_2  D_4  S_4  

 **************************************************************************
 
     BANDS        :      1.18s CPU      1.85s WALL

 
   This run was terminated on:  13:17:26  14Jun2021            

=------------------------------------------------------------------------------=
   JOB DONE.
=------------------------------------------------------------------------------=
