MPI startup(): PMI server not found. Please set I_MPI_PMI_LIBRARY variable if it is not a singleton case.

     Program PROJWFC v.6.7MaX starts on 14Jun2021 at 13:17:27 

     This program is part of the open-source Quantum ESPRESSO suite
     for quantum simulation of materials; please cite
         "P. Giannozzi et al., J. Phys.:Condens. Matter 21 395502 (2009);
         "P. Giannozzi et al., J. Phys.:Condens. Matter 29 465901 (2017);
          URL http://www.quantum-espresso.org", 
     in publications or presentations arising from this work. More details at
     http://www.quantum-espresso.org/quote

     Parallel version (MPI), running on     1 processors

     MPI processes distributed on     1 nodes

     Reading xml data from directory:

     /burg/home/hqp2000/mcu/data/QE/si_band_dos/tmp/si.save/
     file Si.pbe-n-kjpaw_psl.1.0.0.UPF: wavefunction(s)  3S 3P renormalized

     IMPORTANT: XC functional enforced from input :
     Exchange-correlation= PBE
                           (   1   4   3   4   0   0   0)
     Any further DFT definition will be discarded
     Please, verify this is what you really want

 
     G-vector sticks info
     --------------------
     sticks:   dense  smooth     PW     G-vecs:    dense   smooth      PW
     Sum         253     253     85                 2733     2733     531
 

     Check: negative core charge=   -0.000023

     Gaussian broadening (default values): ngauss,degauss=   0    0.007350


     Calling projwave .... 
 
  Problem Sizes 
  natomwfc =            8
  nbnd     =           16
  nkstot   =          141
  npwx     =          350
  nkb      =           36
 

     Atomic states used for projection
     (read from pseudopotential files):

     state #   1: atom   1 (Si ), wfc  1 (l=0 m= 1)
     state #   2: atom   1 (Si ), wfc  2 (l=1 m= 1)
     state #   3: atom   1 (Si ), wfc  2 (l=1 m= 2)
     state #   4: atom   1 (Si ), wfc  2 (l=1 m= 3)
     state #   5: atom   2 (Si ), wfc  1 (l=0 m= 1)
     state #   6: atom   2 (Si ), wfc  2 (l=1 m= 1)
     state #   7: atom   2 (Si ), wfc  2 (l=1 m= 2)
     state #   8: atom   2 (Si ), wfc  2 (l=1 m= 3)

 k =   0.3750000000  0.3750000000  0.7500000000
==== e(   1) =    -2.86305 eV ==== 
     psi = 0.356*[#   1]+0.356*[#   5]+0.047*[#   2]+0.047*[#   3]+0.047*[#   4]
          +0.047*[#   6]+0.047*[#   7]+0.047*[#   8]
    |psi|^2 = 0.997
==== e(   2) =    -0.45080 eV ==== 
     psi = 0.154*[#   1]+0.154*[#   5]+0.114*[#   2]+0.114*[#   3]+0.114*[#   4]
          +0.114*[#   6]+0.114*[#   7]+0.114*[#   8]
    |psi|^2 = 0.989
==== e(   3) =     3.18283 eV ==== 
     psi = 0.144*[#   2]+0.144*[#   3]+0.144*[#   4]+0.144*[#   6]+0.144*[#   7]
          +0.144*[#   8]+0.065*[#   1]+0.065*[#   5]
    |psi|^2 = 0.992
==== e(   4) =     4.65000 eV ==== 
     psi = 0.165*[#   2]+0.165*[#   3]+0.165*[#   4]+0.165*[#   6]+0.165*[#   7]
          +0.165*[#   8]
    |psi|^2 = 0.990
==== e(   5) =     8.47143 eV ==== 
     psi = 0.122*[#   1]+0.122*[#   5]+0.097*[#   2]+0.097*[#   3]+0.097*[#   4]
          +0.097*[#   6]+0.097*[#   7]+0.097*[#   8]
    |psi|^2 = 0.826
==== e(   6) =    10.92067 eV ==== 
     psi = 0.113*[#   1]+0.113*[#   5]+0.081*[#   2]+0.081*[#   3]+0.081*[#   4]
          +0.081*[#   6]+0.081*[#   7]+0.081*[#   8]
    |psi|^2 = 0.712
==== e(   7) =    11.19224 eV ==== 
     psi = 0.119*[#   2]+0.119*[#   3]+0.119*[#   4]+0.119*[#   6]+0.119*[#   7]
          +0.119*[#   8]
    |psi|^2 = 0.715
==== e(   8) =    13.63808 eV ==== 
     psi = 0.062*[#   1]+0.062*[#   5]+0.048*[#   2]+0.048*[#   3]+0.048*[#   4]
          +0.048*[#   6]+0.048*[#   7]+0.048*[#   8]
    |psi|^2 = 0.414
==== e(   9) =    15.47475 eV ==== 
     psi = 0.053*[#   1]+0.053*[#   5]+0.040*[#   2]+0.040*[#   3]+0.040*[#   4]
          +0.040*[#   6]+0.040*[#   7]+0.040*[#   8]
    |psi|^2 = 0.344
==== e(  10) =    15.72253 eV ==== 
     psi = 0.023*[#   2]+0.023*[#   3]+0.023*[#   4]+0.023*[#   6]+0.023*[#   7]
          +0.023*[#   8]
    |psi|^2 = 0.138
==== e(  11) =    18.05983 eV ==== 
     psi = 0.017*[#   1]+0.017*[#   5]+0.011*[#   2]+0.011*[#   3]+0.011*[#   4]
          +0.011*[#   6]+0.011*[#   7]+0.011*[#   8]
    |psi|^2 = 0.100
==== e(  12) =    19.79585 eV ==== 
     psi = 0.014*[#   2]+0.014*[#   3]+0.014*[#   4]+0.014*[#   6]+0.014*[#   7]
          +0.014*[#   8]
    |psi|^2 = 0.086
==== e(  13) =    20.57411 eV ==== 
     psi = 0.040*[#   2]+0.040*[#   3]+0.040*[#   4]+0.040*[#   6]+0.040*[#   7]
          +0.040*[#   8]+0.029*[#   1]+0.029*[#   5]
    |psi|^2 = 0.299
==== e(  14) =    22.25462 eV ==== 
     psi = 0.031*[#   2]+0.031*[#   3]+0.031*[#   4]+0.031*[#   6]+0.031*[#   7]
          +0.031*[#   8]+0.011*[#   1]+0.011*[#   5]
    |psi|^2 = 0.209
==== e(  15) =    24.94783 eV ==== 
     psi = 0.005*[#   1]+0.005*[#   5]
    |psi|^2 = 0.015
==== e(  16) =    26.06456 eV ==== 
     psi = 0.007*[#   1]+0.007*[#   5]+0.002*[#   2]+0.002*[#   3]+0.002*[#   4]
          +0.002*[#   6]+0.002*[#   7]+0.002*[#   8]
    |psi|^2 = 0.025

 k =   0.3671875000  0.3671875000  0.7343750000
==== e(   1) =    -2.88491 eV ==== 
     psi = 0.357*[#   1]+0.357*[#   5]+0.047*[#   2]+0.047*[#   3]+0.047*[#   4]
          +0.047*[#   6]+0.047*[#   7]+0.047*[#   8]
    |psi|^2 = 0.997
==== e(   2) =    -0.44885 eV ==== 
     psi = 0.152*[#   1]+0.152*[#   5]+0.114*[#   2]+0.114*[#   3]+0.114*[#   4]
          +0.114*[#   6]+0.114*[#   7]+0.114*[#   8]
    |psi|^2 = 0.989
==== e(   3) =     3.26128 eV ==== 
     psi = 0.143*[#   2]+0.143*[#   3]+0.143*[#   4]+0.143*[#   6]+0.143*[#   7]
          +0.143*[#   8]+0.066*[#   1]+0.066*[#   5]
    |psi|^2 = 0.992
==== e(   4) =     4.64091 eV ==== 
     psi = 0.165*[#   2]+0.165*[#   3]+0.165*[#   4]+0.165*[#   6]+0.165*[#   7]
          +0.165*[#   8]
    |psi|^2 = 0.990
==== e(   5) =     8.46827 eV ==== 
     psi = 0.123*[#   1]+0.123*[#   5]+0.097*[#   2]+0.097*[#   3]+0.097*[#   4]
          +0.097*[#   6]+0.097*[#   7]+0.097*[#   8]
    |psi|^2 = 0.826
==== e(   6) =    10.86130 eV ==== 
     psi = 0.113*[#   1]+0.113*[#   5]+0.082*[#   2]+0.082*[#   3]+0.082*[#   4]
          +0.082*[#   6]+0.082*[#   7]+0.082*[#   8]
    |psi|^2 = 0.720
==== e(   7) =    11.17000 eV ==== 
     psi = 0.119*[#   2]+0.119*[#   3]+0.119*[#   4]+0.119*[#   6]+0.119*[#   7]
          +0.119*[#   8]
    |psi|^2 = 0.715
==== e(   8) =    13.49783 eV ==== 
     psi = 0.064*[#   1]+0.064*[#   5]+0.050*[#   2]+0.050*[#   3]+0.050*[#   4]
          +0.050*[#   6]+0.050*[#   7]+0.050*[#   8]
    |psi|^2 = 0.427
==== e(   9) =    15.61000 eV ==== 
     psi = 0.045*[#   1]+0.045*[#   5]+0.035*[#   2]+0.035*[#   3]+0.035*[#   4]
          +0.035*[#   6]+0.035*[#   7]+0.035*[#   8]
    |psi|^2 = 0.300
==== e(  10) =    15.96824 eV ==== 
     psi = 0.022*[#   2]+0.022*[#   3]+0.022*[#   4]+0.022*[#   6]+0.022*[#   7]
          +0.022*[#   8]
    |psi|^2 = 0.132
==== e(  11) =    18.07353 eV ==== 
     psi = 0.019*[#   1]+0.019*[#   5]+0.012*[#   2]+0.012*[#   3]+0.012*[#   4]
          +0.012*[#   6]+0.012*[#   7]+0.012*[#   8]
    |psi|^2 = 0.110
==== e(  12) =    19.52365 eV ==== 
     psi = 0.015*[#   2]+0.015*[#   3]+0.015*[#   4]+0.015*[#   6]+0.015*[#   7]
          +0.015*[#   8]
    |psi|^2 = 0.092
==== e(  13) =    20.33387 eV ==== 
     psi = 0.043*[#   2]+0.043*[#   3]+0.043*[#   4]+0.043*[#   6]+0.043*[#   7]
          +0.043*[#   8]+0.032*[#   1]+0.032*[#   5]
    |psi|^2 = 0.322
==== e(  14) =    22.37782 eV ==== 
     psi = 0.030*[#   2]+0.030*[#   3]+0.030*[#   4]+0.030*[#   6]+0.030*[#   7]
          +0.030*[#   8]+0.010*[#   1]+0.010*[#   5]
    |psi|^2 = 0.200
==== e(  15) =    25.29827 eV ==== 
     psi = 0.005*[#   1]+0.005*[#   5]+0.001*[#   2]+0.001*[#   3]+0.001*[#   4]
          +0.001*[#   6]+0.001*[#   7]+0.001*[#   8]
    |psi|^2 = 0.017
==== e(  16) =    25.80188 eV ==== 
     psi = 0.006*[#   1]+0.006*[#   5]+0.002*[#   2]+0.002*[#   3]+0.002*[#   4]
          +0.002*[#   6]+0.002*[#   7]+0.002*[#   8]
    |psi|^2 = 0.023

 k =   0.3593750000  0.3593750000  0.7187500000
==== e(   1) =    -2.91972 eV ==== 
     psi = 0.356*[#   1]+0.356*[#   5]+0.047*[#   2]+0.047*[#   3]+0.047*[#   4]
          +0.047*[#   6]+0.047*[#   7]+0.047*[#   8]
    |psi|^2 = 0.997
==== e(   2) =    -0.42855 eV ==== 
     psi = 0.152*[#   1]+0.152*[#   5]+0.114*[#   2]+0.114*[#   3]+0.114*[#   4]
          +0.114*[#   6]+0.114*[#   7]+0.114*[#   8]
    |psi|^2 = 0.989
==== e(   3) =     3.34187 eV ==== 
     psi = 0.143*[#   2]+0.143*[#   3]+0.143*[#   4]+0.143*[#   6]+0.143*[#   7]
          +0.143*[#   8]+0.067*[#   1]+0.067*[#   5]
    |psi|^2 = 0.992
==== e(   4) =     4.63482 eV ==== 
     psi = 0.165*[#   2]+0.165*[#   3]+0.165*[#   4]+0.165*[#   6]+0.165*[#   7]
          +0.165*[#   8]
    |psi|^2 = 0.990
==== e(   5) =     8.46823 eV ==== 
     psi = 0.125*[#   1]+0.125*[#   5]+0.096*[#   2]+0.096*[#   3]+0.096*[#   4]
          +0.096*[#   6]+0.096*[#   7]+0.096*[#   8]
    |psi|^2 = 0.826
==== e(   6) =    10.80373 eV ==== 
     psi = 0.112*[#   1]+0.112*[#   5]+0.084*[#   2]+0.084*[#   3]+0.084*[#   4]
          +0.084*[#   6]+0.084*[#   7]+0.084*[#   8]
    |psi|^2 = 0.727
==== e(   7) =    11.15200 eV ==== 
     psi = 0.119*[#   2]+0.119*[#   3]+0.119*[#   4]+0.119*[#   6]+0.119*[#   7]
          +0.119*[#   8]
    |psi|^2 = 0.716
==== e(   8) =    13.36147 eV ==== 
     psi = 0.065*[#   1]+0.065*[#   5]+0.051*[#   2]+0.051*[#   3]+0.051*[#   4]
          +0.051*[#   6]+0.051*[#   7]+0.051*[#   8]
    |psi|^2 = 0.437
==== e(   9) =    15.72658 eV ==== 
     psi = 0.038*[#   1]+0.038*[#   5]+0.030*[#   2]+0.030*[#   3]+0.030*[#   4]
          +0.030*[#   6]+0.030*[#   7]+0.030*[#   8]
    |psi|^2 = 0.258
==== e(  10) =    16.21693 eV ==== 
     psi = 0.021*[#   2]+0.021*[#   3]+0.021*[#   4]+0.021*[#   6]+0.021*[#   7]
          +0.021*[#   8]
    |psi|^2 = 0.126
==== e(  11) =    18.11126 eV ==== 
     psi = 0.020*[#   1]+0.020*[#   5]+0.013*[#   2]+0.013*[#   3]+0.013*[#   4]
          +0.013*[#   6]+0.013*[#   7]+0.013*[#   8]
    |psi|^2 = 0.118
==== e(  12) =    19.25767 eV ==== 
     psi = 0.016*[#   2]+0.016*[#   3]+0.016*[#   4]+0.016*[#   6]+0.016*[#   7]
          +0.016*[#   8]
    |psi|^2 = 0.098
==== e(  13) =    20.09559 eV ==== 
     psi = 0.046*[#   2]+0.046*[#   3]+0.046*[#   4]+0.046*[#   6]+0.046*[#   7]
          +0.046*[#   8]+0.036*[#   1]+0.036*[#   5]
    |psi|^2 = 0.347
==== e(  14) =    22.49679 eV ==== 
     psi = 0.029*[#   2]+0.029*[#   3]+0.029*[#   4]+0.029*[#   6]+0.029*[#   7]
          +0.029*[#   8]+0.009*[#   1]+0.009*[#   5]
    |psi|^2 = 0.191
==== e(  15) =    25.48923 eV ==== 
     psi = 0.008*[#   1]+0.008*[#   5]+0.002*[#   2]+0.002*[#   3]+0.002*[#   4]
          +0.002*[#   6]+0.002*[#   7]+0.002*[#   8]
    |psi|^2 = 0.027
==== e(  16) =    25.70864 eV ==== 
     psi = 0.003*[#   1]+0.003*[#   5]
    |psi|^2 = 0.012

 k =   0.3515625000  0.3515625000  0.7031250000
==== e(   1) =    -2.96670 eV ==== 
     psi = 0.355*[#   1]+0.355*[#   5]+0.048*[#   2]+0.048*[#   3]+0.048*[#   4]
          +0.048*[#   6]+0.048*[#   7]+0.048*[#   8]
    |psi|^2 = 0.997
==== e(   2) =    -0.39101 eV ==== 
     psi = 0.153*[#   1]+0.153*[#   5]+0.114*[#   2]+0.114*[#   3]+0.114*[#   4]
          +0.114*[#   6]+0.114*[#   7]+0.114*[#   8]
    |psi|^2 = 0.989
==== e(   3) =     3.42423 eV ==== 
     psi = 0.143*[#   2]+0.143*[#   3]+0.143*[#   4]+0.143*[#   6]+0.143*[#   7]
          +0.143*[#   8]+0.067*[#   1]+0.067*[#   5]
    |psi|^2 = 0.991
==== e(   4) =     4.63092 eV ==== 
     psi = 0.165*[#   2]+0.165*[#   3]+0.165*[#   4]+0.165*[#   6]+0.165*[#   7]
          +0.165*[#   8]
    |psi|^2 = 0.990
==== e(   5) =     8.47112 eV ==== 
     psi = 0.126*[#   1]+0.126*[#   5]+0.096*[#   2]+0.096*[#   3]+0.096*[#   4]
          +0.096*[#   6]+0.096*[#   7]+0.096*[#   8]
    |psi|^2 = 0.827
==== e(   6) =    10.74704 eV ==== 
     psi = 0.112*[#   1]+0.112*[#   5]+0.085*[#   2]+0.085*[#   3]+0.085*[#   4]
          +0.085*[#   6]+0.085*[#   7]+0.085*[#   8]
    |psi|^2 = 0.735
==== e(   7) =    11.13208 eV ==== 
     psi = 0.120*[#   2]+0.120*[#   3]+0.120*[#   4]+0.120*[#   6]+0.120*[#   7]
          +0.120*[#   8]
    |psi|^2 = 0.718
==== e(   8) =    13.22800 eV ==== 
     psi = 0.067*[#   1]+0.067*[#   5]+0.052*[#   2]+0.052*[#   3]+0.052*[#   4]
          +0.052*[#   6]+0.052*[#   7]+0.052*[#   8]
    |psi|^2 = 0.445
==== e(   9) =    15.82001 eV ==== 
     psi = 0.032*[#   1]+0.032*[#   5]+0.026*[#   2]+0.026*[#   3]+0.026*[#   4]
          +0.026*[#   6]+0.026*[#   7]+0.026*[#   8]
    |psi|^2 = 0.219
==== e(  10) =    16.46738 eV ==== 
     psi = 0.020*[#   2]+0.020*[#   3]+0.020*[#   4]+0.020*[#   6]+0.020*[#   7]
          +0.020*[#   8]
    |psi|^2 = 0.117
==== e(  11) =    18.17203 eV ==== 
     psi = 0.021*[#   1]+0.021*[#   5]+0.013*[#   2]+0.013*[#   3]+0.013*[#   4]
          +0.013*[#   6]+0.013*[#   7]+0.013*[#   8]
    |psi|^2 = 0.121
==== e(  12) =    18.99566 eV ==== 
     psi = 0.018*[#   2]+0.018*[#   3]+0.018*[#   4]+0.018*[#   6]+0.018*[#   7]
          +0.018*[#   8]
    |psi|^2 = 0.106
==== e(  13) =    19.85838 eV ==== 
     psi = 0.049*[#   2]+0.049*[#   3]+0.049*[#   4]+0.049*[#   6]+0.049*[#   7]
          +0.049*[#   8]+0.040*[#   1]+0.040*[#   5]
    |psi|^2 = 0.375
==== e(  14) =    22.60814 eV ==== 
     psi = 0.028*[#   2]+0.028*[#   3]+0.028*[#   4]+0.028*[#   6]+0.028*[#   7]
          +0.028*[#   8]+0.009*[#   1]+0.009*[#   5]
    |psi|^2 = 0.183
==== e(  15) =    25.24889 eV ==== 
     psi = 0.007*[#   1]+0.007*[#   5]+0.002*[#   2]+0.002*[#   3]+0.002*[#   4]
          +0.002*[#   6]+0.002*[#   7]+0.002*[#   8]
    |psi|^2 = 0.026
==== e(  16) =    26.04704 eV ==== 
     psi = 0.004*[#   1]+0.004*[#   5]
    |psi|^2 = 0.014

 k =   0.3437500000  0.3437500000  0.6875000000
==== e(   1) =    -3.02445 eV ==== 
     psi = 0.354*[#   1]+0.354*[#   5]+0.048*[#   2]+0.048*[#   3]+0.048*[#   4]
          +0.048*[#   6]+0.048*[#   7]+0.048*[#   8]
    |psi|^2 = 0.996
==== e(   2) =    -0.33728 eV ==== 
     psi = 0.154*[#   1]+0.154*[#   5]+0.114*[#   2]+0.114*[#   3]+0.114*[#   4]
          +0.114*[#   6]+0.114*[#   7]+0.114*[#   8]
    |psi|^2 = 0.989
==== e(   3) =     3.50825 eV ==== 
     psi = 0.143*[#   2]+0.143*[#   3]+0.143*[#   4]+0.143*[#   6]+0.143*[#   7]
          +0.143*[#   8]+0.068*[#   1]+0.068*[#   5]
    |psi|^2 = 0.991
==== e(   4) =     4.62965 eV ==== 
     psi = 0.165*[#   2]+0.165*[#   3]+0.165*[#   4]+0.165*[#   6]+0.165*[#   7]
          +0.165*[#   8]
    |psi|^2 = 0.990
==== e(   5) =     8.47694 eV ==== 
     psi = 0.128*[#   1]+0.128*[#   5]+0.095*[#   2]+0.095*[#   3]+0.095*[#   4]
          +0.095*[#   6]+0.095*[#   7]+0.095*[#   8]
    |psi|^2 = 0.828
==== e(   6) =    10.69176 eV ==== 
     psi = 0.111*[#   1]+0.111*[#   5]+0.087*[#   2]+0.087*[#   3]+0.087*[#   4]
          +0.087*[#   6]+0.087*[#   7]+0.087*[#   8]
    |psi|^2 = 0.742
==== e(   7) =    11.11335 eV ==== 
     psi = 0.120*[#   2]+0.120*[#   3]+0.120*[#   4]+0.120*[#   6]+0.120*[#   7]
          +0.120*[#   8]
    |psi|^2 = 0.720
==== e(   8) =    13.09835 eV ==== 
     psi = 0.068*[#   1]+0.068*[#   5]+0.053*[#   2]+0.053*[#   3]+0.053*[#   4]
          +0.053*[#   6]+0.053*[#   7]+0.053*[#   8]
    |psi|^2 = 0.452
==== e(   9) =    15.89169 eV ==== 
     psi = 0.026*[#   1]+0.026*[#   5]+0.022*[#   2]+0.022*[#   3]+0.022*[#   4]
          +0.022*[#   6]+0.022*[#   7]+0.022*[#   8]
    |psi|^2 = 0.185
==== e(  10) =    16.71772 eV ==== 
     psi = 0.018*[#   2]+0.018*[#   3]+0.018*[#   4]+0.018*[#   6]+0.018*[#   7]
          +0.018*[#   8]
    |psi|^2 = 0.106
==== e(  11) =    18.25181 eV ==== 
     psi = 0.022*[#   1]+0.022*[#   5]+0.012*[#   2]+0.012*[#   3]+0.012*[#   4]
          +0.012*[#   6]+0.012*[#   7]+0.012*[#   8]
    |psi|^2 = 0.117
==== e(  12) =    18.74118 eV ==== 
     psi = 0.019*[#   2]+0.019*[#   3]+0.019*[#   4]+0.019*[#   6]+0.019*[#   7]
          +0.019*[#   8]
    |psi|^2 = 0.116
==== e(  13) =    19.62853 eV ==== 
     psi = 0.053*[#   2]+0.053*[#   3]+0.053*[#   4]+0.053*[#   6]+0.053*[#   7]
          +0.053*[#   8]+0.044*[#   1]+0.044*[#   5]
    |psi|^2 = 0.408
==== e(  14) =    22.70904 eV ==== 
     psi = 0.026*[#   2]+0.026*[#   3]+0.026*[#   4]+0.026*[#   6]+0.026*[#   7]
          +0.026*[#   8]+0.008*[#   1]+0.008*[#   5]
    |psi|^2 = 0.173
==== e(  15) =    24.99589 eV ==== 
     psi = 0.007*[#   1]+0.007*[#   5]+0.002*[#   2]+0.002*[#   3]+0.002*[#   4]
          +0.002*[#   6]+0.002*[#   7]+0.002*[#   8]
    |psi|^2 = 0.027
==== e(  16) =    25.96365 eV ==== 
     psi = 0.001*[#   2]+0.001*[#   3]+0.001*[#   4]+0.001*[#   6]+0.001*[#   7]
          +0.001*[#   8]
    |psi|^2 = 0.008

 k =   0.3359375000  0.3359375000  0.6718750000
==== e(   1) =    -3.09160 eV ==== 
     psi = 0.352*[#   1]+0.352*[#   5]+0.049*[#   2]+0.049*[#   3]+0.049*[#   4]
          +0.049*[#   6]+0.049*[#   7]+0.049*[#   8]
    |psi|^2 = 0.996
==== e(   2) =    -0.26884 eV ==== 
     psi = 0.155*[#   1]+0.155*[#   5]+0.113*[#   2]+0.113*[#   3]+0.113*[#   4]
          +0.113*[#   6]+0.113*[#   7]+0.113*[#   8]
    |psi|^2 = 0.989
==== e(   3) =     3.59367 eV ==== 
     psi = 0.142*[#   2]+0.142*[#   3]+0.142*[#   4]+0.142*[#   6]+0.142*[#   7]
          +0.142*[#   8]+0.068*[#   1]+0.068*[#   5]
    |psi|^2 = 0.991
==== e(   4) =     4.63099 eV ==== 
     psi = 0.165*[#   2]+0.165*[#   3]+0.165*[#   4]+0.165*[#   6]+0.165*[#   7]
          +0.165*[#   8]
    |psi|^2 = 0.990
==== e(   5) =     8.48614 eV ==== 
     psi = 0.129*[#   1]+0.129*[#   5]+0.095*[#   2]+0.095*[#   3]+0.095*[#   4]
          +0.095*[#   6]+0.095*[#   7]+0.095*[#   8]
    |psi|^2 = 0.828
==== e(   6) =    10.63852 eV ==== 
     psi = 0.110*[#   1]+0.110*[#   5]+0.088*[#   2]+0.088*[#   3]+0.088*[#   4]
          +0.088*[#   6]+0.088*[#   7]+0.088*[#   8]
    |psi|^2 = 0.750
==== e(   7) =    11.09448 eV ==== 
     psi = 0.120*[#   2]+0.120*[#   3]+0.120*[#   4]+0.120*[#   6]+0.120*[#   7]
          +0.120*[#   8]
    |psi|^2 = 0.722
==== e(   8) =    12.97211 eV ==== 
     psi = 0.069*[#   1]+0.069*[#   5]+0.053*[#   2]+0.053*[#   3]+0.053*[#   4]
          +0.053*[#   6]+0.053*[#   7]+0.053*[#   8]
    |psi|^2 = 0.457
==== e(   9) =    15.94472 eV ==== 
     psi = 0.022*[#   1]+0.022*[#   5]+0.019*[#   2]+0.019*[#   3]+0.019*[#   4]
          +0.019*[#   6]+0.019*[#   7]+0.019*[#   8]
    |psi|^2 = 0.156
==== e(  10) =    16.95887 eV ==== 
     psi = 0.015*[#   2]+0.015*[#   3]+0.015*[#   4]+0.015*[#   6]+0.015*[#   7]
          +0.015*[#   8]
    |psi|^2 = 0.090
==== e(  11) =    18.34060 eV ==== 
     psi = 0.021*[#   1]+0.021*[#   5]+0.010*[#   2]+0.010*[#   3]+0.010*[#   4]
          +0.010*[#   6]+0.010*[#   7]+0.010*[#   8]
    |psi|^2 = 0.104
==== e(  12) =    18.49634 eV ==== 
     psi = 0.022*[#   2]+0.022*[#   3]+0.022*[#   4]+0.022*[#   6]+0.022*[#   7]
          +0.022*[#   8]
    |psi|^2 = 0.131
==== e(  13) =    19.41580 eV ==== 
     psi = 0.058*[#   2]+0.058*[#   3]+0.058*[#   4]+0.058*[#   6]+0.058*[#   7]
          +0.058*[#   8]+0.049*[#   1]+0.049*[#   5]
    |psi|^2 = 0.445
==== e(  14) =    22.79259 eV ==== 
     psi = 0.024*[#   2]+0.024*[#   3]+0.024*[#   4]+0.024*[#   6]+0.024*[#   7]
          +0.024*[#   8]+0.007*[#   1]+0.007*[#   5]
    |psi|^2 = 0.161
==== e(  15) =    24.76361 eV ==== 
     psi = 0.007*[#   1]+0.007*[#   5]+0.003*[#   2]+0.003*[#   3]+0.003*[#   4]
          +0.003*[#   6]+0.003*[#   7]+0.003*[#   8]
    |psi|^2 = 0.030
==== e(  16) =    25.74499 eV ==== 
 
    |psi|^2 = 0.006

 k =   0.3281250000  0.3281250000  0.6562500000
==== e(   1) =    -3.16598 eV ==== 
     psi = 0.350*[#   1]+0.350*[#   5]+0.049*[#   2]+0.049*[#   3]+0.049*[#   4]
          +0.049*[#   6]+0.049*[#   7]+0.049*[#   8]
    |psi|^2 = 0.996
==== e(   2) =    -0.18697 eV ==== 
     psi = 0.157*[#   1]+0.157*[#   5]+0.113*[#   2]+0.113*[#   3]+0.113*[#   4]
          +0.113*[#   6]+0.113*[#   7]+0.113*[#   8]
    |psi|^2 = 0.989
==== e(   3) =     3.68051 eV ==== 
     psi = 0.142*[#   2]+0.142*[#   3]+0.142*[#   4]+0.142*[#   6]+0.142*[#   7]
          +0.142*[#   8]+0.069*[#   1]+0.069*[#   5]
    |psi|^2 = 0.991
==== e(   4) =     4.63541 eV ==== 
     psi = 0.165*[#   2]+0.165*[#   3]+0.165*[#   4]+0.165*[#   6]+0.165*[#   7]
          +0.165*[#   8]
    |psi|^2 = 0.990
==== e(   5) =     8.49753 eV ==== 
     psi = 0.130*[#   1]+0.130*[#   5]+0.095*[#   2]+0.095*[#   3]+0.095*[#   4]
          +0.095*[#   6]+0.095*[#   7]+0.095*[#   8]
    |psi|^2 = 0.830
==== e(   6) =    10.58609 eV ==== 
     psi = 0.109*[#   1]+0.109*[#   5]+0.090*[#   2]+0.090*[#   3]+0.090*[#   4]
          +0.090*[#   6]+0.090*[#   7]+0.090*[#   8]
    |psi|^2 = 0.758
==== e(   7) =    11.07802 eV ==== 
     psi = 0.121*[#   2]+0.121*[#   3]+0.121*[#   4]+0.121*[#   6]+0.121*[#   7]
          +0.121*[#   8]
    |psi|^2 = 0.725
==== e(   8) =    12.85259 eV ==== 
     psi = 0.070*[#   1]+0.070*[#   5]+0.054*[#   2]+0.054*[#   3]+0.054*[#   4]
          +0.054*[#   6]+0.054*[#   7]+0.054*[#   8]
    |psi|^2 = 0.461
==== e(   9) =    15.97888 eV ==== 
     psi = 0.018*[#   1]+0.018*[#   5]+0.016*[#   2]+0.016*[#   3]+0.016*[#   4]
          +0.016*[#   6]+0.016*[#   7]+0.016*[#   8]
    |psi|^2 = 0.132
==== e(  10) =    17.19879 eV ==== 
     psi = 0.011*[#   2]+0.011*[#   3]+0.011*[#   4]+0.011*[#   6]+0.011*[#   7]
          +0.011*[#   8]
    |psi|^2 = 0.066
==== e(  11) =    18.27592 eV ==== 
     psi = 0.026*[#   2]+0.026*[#   3]+0.026*[#   4]+0.026*[#   6]+0.026*[#   7]
          +0.026*[#   8]
    |psi|^2 = 0.154
==== e(  12) =    18.41199 eV ==== 
     psi = 0.021*[#   1]+0.021*[#   5]+0.008*[#   2]+0.008*[#   3]+0.008*[#   4]
          +0.008*[#   6]+0.008*[#   7]+0.008*[#   8]
    |psi|^2 = 0.088
==== e(  13) =    19.24380 eV ==== 
     psi = 0.063*[#   2]+0.063*[#   3]+0.063*[#   4]+0.063*[#   6]+0.063*[#   7]
          +0.063*[#   8]+0.053*[#   1]+0.053*[#   5]
    |psi|^2 = 0.482
==== e(  14) =    22.85853 eV ==== 
     psi = 0.022*[#   2]+0.022*[#   3]+0.022*[#   4]+0.022*[#   6]+0.022*[#   7]
          +0.022*[#   8]+0.007*[#   1]+0.007*[#   5]
    |psi|^2 = 0.146
==== e(  15) =    24.55384 eV ==== 
     psi = 0.007*[#   1]+0.007*[#   5]+0.004*[#   2]+0.004*[#   3]+0.004*[#   4]
          +0.004*[#   6]+0.004*[#   7]+0.004*[#   8]
    |psi|^2 = 0.036
==== e(  16) =    25.51804 eV ==== 
 
    |psi|^2 = 0.004

 k =   0.3203125000  0.3203125000  0.6406250000
==== e(   1) =    -3.24668 eV ==== 
     psi = 0.348*[#   1]+0.348*[#   5]+0.050*[#   2]+0.050*[#   3]+0.050*[#   4]
          +0.050*[#   6]+0.050*[#   7]+0.050*[#   8]
    |psi|^2 = 0.996
==== e(   2) =    -0.09353 eV ==== 
     psi = 0.158*[#   1]+0.158*[#   5]+0.112*[#   2]+0.112*[#   3]+0.112*[#   4]
          +0.112*[#   6]+0.112*[#   7]+0.112*[#   8]
    |psi|^2 = 0.990
==== e(   3) =     3.76881 eV ==== 
     psi = 0.142*[#   2]+0.142*[#   3]+0.142*[#   4]+0.142*[#   6]+0.142*[#   7]
          +0.142*[#   8]+0.069*[#   1]+0.069*[#   5]
    |psi|^2 = 0.991
==== e(   4) =     4.64218 eV ==== 
     psi = 0.165*[#   2]+0.165*[#   3]+0.165*[#   4]+0.165*[#   6]+0.165*[#   7]
          +0.165*[#   8]
    |psi|^2 = 0.990
==== e(   5) =     8.51157 eV ==== 
     psi = 0.131*[#   1]+0.131*[#   5]+0.095*[#   2]+0.095*[#   3]+0.095*[#   4]
          +0.095*[#   6]+0.095*[#   7]+0.095*[#   8]
    |psi|^2 = 0.831
==== e(   6) =    10.53621 eV ==== 
     psi = 0.108*[#   1]+0.108*[#   5]+0.092*[#   2]+0.092*[#   3]+0.092*[#   4]
          +0.092*[#   6]+0.092*[#   7]+0.092*[#   8]
    |psi|^2 = 0.767
==== e(   7) =    11.06407 eV ==== 
     psi = 0.121*[#   2]+0.121*[#   3]+0.121*[#   4]+0.121*[#   6]+0.121*[#   7]
          +0.121*[#   8]
    |psi|^2 = 0.728
==== e(   8) =    12.73622 eV ==== 
     psi = 0.070*[#   1]+0.070*[#   5]+0.054*[#   2]+0.054*[#   3]+0.054*[#   4]
          +0.054*[#   6]+0.054*[#   7]+0.054*[#   8]
    |psi|^2 = 0.463
==== e(   9) =    15.99842 eV ==== 
     psi = 0.015*[#   1]+0.015*[#   5]+0.014*[#   2]+0.014*[#   3]+0.014*[#   4]
          +0.014*[#   6]+0.014*[#   7]+0.014*[#   8]
    |psi|^2 = 0.114
==== e(  10) =    17.38158 eV ==== 
     psi = 0.004*[#   2]+0.004*[#   3]+0.004*[#   4]+0.004*[#   6]+0.004*[#   7]
          +0.004*[#   8]
    |psi|^2 = 0.027
==== e(  11) =    18.11082 eV ==== 
     psi = 0.032*[#   2]+0.032*[#   3]+0.032*[#   4]+0.032*[#   6]+0.032*[#   7]
          +0.032*[#   8]
    |psi|^2 = 0.190
==== e(  12) =    18.41521 eV ==== 
     psi = 0.025*[#   1]+0.025*[#   5]+0.010*[#   2]+0.010*[#   3]+0.010*[#   4]
          +0.010*[#   6]+0.010*[#   7]+0.010*[#   8]
    |psi|^2 = 0.108
==== e(  13) =    19.15584 eV ==== 
     psi = 0.062*[#   2]+0.062*[#   3]+0.062*[#   4]+0.062*[#   6]+0.062*[#   7]
          +0.062*[#   8]+0.052*[#   1]+0.052*[#   5]
    |psi|^2 = 0.477
==== e(  14) =    22.87985 eV ==== 
     psi = 0.019*[#   2]+0.019*[#   3]+0.019*[#   4]+0.019*[#   6]+0.019*[#   7]
          +0.019*[#   8]+0.006*[#   1]+0.006*[#   5]
    |psi|^2 = 0.126
==== e(  15) =    24.38500 eV ==== 
     psi = 0.006*[#   1]+0.006*[#   5]+0.006*[#   2]+0.006*[#   3]+0.006*[#   4]
          +0.006*[#   6]+0.006*[#   7]+0.006*[#   8]
    |psi|^2 = 0.048
==== e(  16) =    25.28144 eV ==== 
 
    |psi|^2 = 0.003

 k =   0.3125000000  0.3125000000  0.6250000000
==== e(   1) =    -3.33207 eV ==== 
     psi = 0.347*[#   1]+0.347*[#   5]+0.050*[#   2]+0.050*[#   3]+0.050*[#   4]
          +0.050*[#   6]+0.050*[#   7]+0.050*[#   8]
    |psi|^2 = 0.996
==== e(   2) =     0.01017 eV ==== 
     psi = 0.160*[#   1]+0.160*[#   5]+0.112*[#   2]+0.112*[#   3]+0.112*[#   4]
          +0.112*[#   6]+0.112*[#   7]+0.112*[#   8]
    |psi|^2 = 0.990
==== e(   3) =     3.85771 eV ==== 
     psi = 0.142*[#   2]+0.142*[#   3]+0.142*[#   4]+0.142*[#   6]+0.142*[#   7]
          +0.142*[#   8]+0.069*[#   1]+0.069*[#   5]
    |psi|^2 = 0.990
==== e(   4) =     4.65165 eV ==== 
     psi = 0.165*[#   2]+0.165*[#   3]+0.165*[#   4]+0.165*[#   6]+0.165*[#   7]
          +0.165*[#   8]
    |psi|^2 = 0.990
==== e(   5) =     8.52776 eV ==== 
     psi = 0.133*[#   1]+0.133*[#   5]+0.095*[#   2]+0.095*[#   3]+0.095*[#   4]
          +0.095*[#   6]+0.095*[#   7]+0.095*[#   8]
    |psi|^2 = 0.833
==== e(   6) =    10.48665 eV ==== 
     psi = 0.106*[#   1]+0.106*[#   5]+0.094*[#   2]+0.094*[#   3]+0.094*[#   4]
          +0.094*[#   6]+0.094*[#   7]+0.094*[#   8]
    |psi|^2 = 0.775
==== e(   7) =    11.04945 eV ==== 
     psi = 0.122*[#   2]+0.122*[#   3]+0.122*[#   4]+0.122*[#   6]+0.122*[#   7]
          +0.122*[#   8]
    |psi|^2 = 0.732
==== e(   8) =    12.62452 eV ==== 
     psi = 0.070*[#   1]+0.070*[#   5]+0.054*[#   2]+0.054*[#   3]+0.054*[#   4]
          +0.054*[#   6]+0.054*[#   7]+0.054*[#   8]
    |psi|^2 = 0.463
==== e(   9) =    16.00660 eV ==== 
     psi = 0.013*[#   2]+0.013*[#   3]+0.013*[#   4]+0.013*[#   6]+0.013*[#   7]
          +0.013*[#   8]+0.012*[#   1]+0.012*[#   5]
    |psi|^2 = 0.101
==== e(  10) =    17.42242 eV ==== 
 
    |psi|^2 = 0.006
==== e(  11) =    18.09430 eV ==== 
     psi = 0.035*[#   2]+0.035*[#   3]+0.035*[#   4]+0.035*[#   6]+0.035*[#   7]
          +0.035*[#   8]
    |psi|^2 = 0.209
==== e(  12) =    18.31163 eV ==== 
     psi = 0.035*[#   1]+0.035*[#   5]+0.019*[#   2]+0.019*[#   3]+0.019*[#   4]
          +0.019*[#   6]+0.019*[#   7]+0.019*[#   8]
    |psi|^2 = 0.183
==== e(  13) =    19.18806 eV ==== 
     psi = 0.054*[#   2]+0.054*[#   3]+0.054*[#   4]+0.054*[#   6]+0.054*[#   7]
          +0.054*[#   8]+0.046*[#   1]+0.046*[#   5]
    |psi|^2 = 0.414
==== e(  14) =    22.84865 eV ==== 
     psi = 0.015*[#   2]+0.015*[#   3]+0.015*[#   4]+0.015*[#   6]+0.015*[#   7]
          +0.015*[#   8]+0.006*[#   1]+0.006*[#   5]
    |psi|^2 = 0.102
==== e(  15) =    24.26818 eV ==== 
     psi = 0.009*[#   2]+0.009*[#   3]+0.009*[#   4]+0.009*[#   6]+0.009*[#   7]
          +0.009*[#   8]+0.006*[#   1]+0.006*[#   5]
    |psi|^2 = 0.063
==== e(  16) =    25.04071 eV ==== 
 
    |psi|^2 = 0.003

 k =   0.3046875000  0.3046875000  0.6093750000
==== e(   1) =    -3.42092 eV ==== 
     psi = 0.345*[#   1]+0.345*[#   5]+0.051*[#   2]+0.051*[#   3]+0.051*[#   4]
          +0.051*[#   6]+0.051*[#   7]+0.051*[#   8]
    |psi|^2 = 0.996
==== e(   2) =     0.12303 eV ==== 
     psi = 0.161*[#   1]+0.161*[#   5]+0.111*[#   2]+0.111*[#   3]+0.111*[#   4]
          +0.111*[#   6]+0.111*[#   7]+0.111*[#   8]
    |psi|^2 = 0.990
==== e(   3) =     3.94743 eV ==== 
     psi = 0.142*[#   2]+0.142*[#   3]+0.142*[#   4]+0.142*[#   6]+0.142*[#   7]
          +0.142*[#   8]+0.069*[#   1]+0.069*[#   5]
    |psi|^2 = 0.990
==== e(   4) =     4.66385 eV ==== 
     psi = 0.165*[#   2]+0.165*[#   3]+0.165*[#   4]+0.165*[#   6]+0.165*[#   7]
          +0.165*[#   8]
    |psi|^2 = 0.989
==== e(   5) =     8.54610 eV ==== 
     psi = 0.134*[#   1]+0.134*[#   5]+0.095*[#   2]+0.095*[#   3]+0.095*[#   4]
          +0.095*[#   6]+0.095*[#   7]+0.095*[#   8]
    |psi|^2 = 0.836
==== e(   6) =    10.43852 eV ==== 
     psi = 0.105*[#   1]+0.105*[#   5]+0.096*[#   2]+0.096*[#   3]+0.096*[#   4]
          +0.096*[#   6]+0.096*[#   7]+0.096*[#   8]
    |psi|^2 = 0.783
==== e(   7) =    11.03555 eV ==== 
     psi = 0.123*[#   2]+0.123*[#   3]+0.123*[#   4]+0.123*[#   6]+0.123*[#   7]
          +0.123*[#   8]
    |psi|^2 = 0.736
==== e(   8) =    12.51807 eV ==== 
     psi = 0.071*[#   1]+0.071*[#   5]+0.053*[#   2]+0.053*[#   3]+0.053*[#   4]
          +0.053*[#   6]+0.053*[#   7]+0.053*[#   8]
    |psi|^2 = 0.462
==== e(   9) =    16.00644 eV ==== 
     psi = 0.012*[#   2]+0.012*[#   3]+0.012*[#   4]+0.012*[#   6]+0.012*[#   7]
          +0.012*[#   8]+0.011*[#   1]+0.011*[#   5]
    |psi|^2 = 0.092
==== e(  10) =    17.29709 eV ==== 
     psi = 0.005*[#   2]+0.005*[#   3]+0.005*[#   4]+0.005*[#   6]+0.005*[#   7]
          +0.005*[#   8]
    |psi|^2 = 0.029
==== e(  11) =    18.13274 eV ==== 
     psi = 0.044*[#   1]+0.044*[#   5]+0.028*[#   2]+0.028*[#   3]+0.028*[#   4]
          +0.028*[#   6]+0.028*[#   7]+0.028*[#   8]
    |psi|^2 = 0.255
==== e(  12) =    18.25071 eV ==== 
     psi = 0.030*[#   2]+0.030*[#   3]+0.030*[#   4]+0.030*[#   6]+0.030*[#   7]
          +0.030*[#   8]
    |psi|^2 = 0.182
==== e(  13) =    19.30512 eV ==== 
     psi = 0.045*[#   2]+0.045*[#   3]+0.045*[#   4]+0.045*[#   6]+0.045*[#   7]
          +0.045*[#   8]+0.040*[#   1]+0.040*[#   5]
    |psi|^2 = 0.350
==== e(  14) =    22.75897 eV ==== 
     psi = 0.011*[#   2]+0.011*[#   3]+0.011*[#   4]+0.011*[#   6]+0.011*[#   7]
          +0.011*[#   8]+0.005*[#   1]+0.005*[#   5]
    |psi|^2 = 0.077
==== e(  15) =    24.21428 eV ==== 
     psi = 0.011*[#   2]+0.011*[#   3]+0.011*[#   4]+0.011*[#   6]+0.011*[#   7]
          +0.011*[#   8]+0.006*[#   1]+0.006*[#   5]
    |psi|^2 = 0.080
==== e(  16) =    24.79939 eV ==== 
 
    |psi|^2 = 0.002

 k =   0.2968750000  0.2968750000  0.5937500000
==== e(   1) =    -3.51221 eV ==== 
     psi = 0.345*[#   1]+0.345*[#   5]+0.051*[#   2]+0.051*[#   3]+0.051*[#   4]
          +0.051*[#   6]+0.051*[#   7]+0.051*[#   8]
    |psi|^2 = 0.996
==== e(   2) =     0.24405 eV ==== 
     psi = 0.162*[#   1]+0.162*[#   5]+0.111*[#   2]+0.111*[#   3]+0.111*[#   4]
          +0.111*[#   6]+0.111*[#   7]+0.111*[#   8]
    |psi|^2 = 0.990
==== e(   3) =     4.03781 eV ==== 
     psi = 0.142*[#   2]+0.142*[#   3]+0.142*[#   4]+0.142*[#   6]+0.142*[#   7]
          +0.142*[#   8]+0.068*[#   1]+0.068*[#   5]
    |psi|^2 = 0.990
==== e(   4) =     4.67876 eV ==== 
     psi = 0.165*[#   2]+0.165*[#   3]+0.165*[#   4]+0.165*[#   6]+0.165*[#   7]
          +0.165*[#   8]
    |psi|^2 = 0.989
==== e(   5) =     8.56633 eV ==== 
     psi = 0.135*[#   1]+0.135*[#   5]+0.095*[#   2]+0.095*[#   3]+0.095*[#   4]
          +0.095*[#   6]+0.095*[#   7]+0.095*[#   8]
    |psi|^2 = 0.838
==== e(   6) =    10.39179 eV ==== 
     psi = 0.104*[#   1]+0.104*[#   5]+0.097*[#   2]+0.097*[#   3]+0.097*[#   4]
          +0.097*[#   6]+0.097*[#   7]+0.097*[#   8]
    |psi|^2 = 0.792
==== e(   7) =    11.02218 eV ==== 
     psi = 0.123*[#   2]+0.123*[#   3]+0.123*[#   4]+0.123*[#   6]+0.123*[#   7]
          +0.123*[#   8]
    |psi|^2 = 0.740
==== e(   8) =    12.41724 eV ==== 
     psi = 0.071*[#   1]+0.071*[#   5]+0.053*[#   2]+0.053*[#   3]+0.053*[#   4]
          +0.053*[#   6]+0.053*[#   7]+0.053*[#   8]
    |psi|^2 = 0.459
==== e(   9) =    16.00024 eV ==== 
     psi = 0.011*[#   2]+0.011*[#   3]+0.011*[#   4]+0.011*[#   6]+0.011*[#   7]
          +0.011*[#   8]+0.010*[#   1]+0.010*[#   5]
    |psi|^2 = 0.087
==== e(  10) =    17.10468 eV ==== 
     psi = 0.008*[#   2]+0.008*[#   3]+0.008*[#   4]+0.008*[#   6]+0.008*[#   7]
          +0.008*[#   8]
    |psi|^2 = 0.050
==== e(  11) =    17.92039 eV ==== 
     psi = 0.051*[#   1]+0.051*[#   5]+0.034*[#   2]+0.034*[#   3]+0.034*[#   4]
          +0.034*[#   6]+0.034*[#   7]+0.034*[#   8]
    |psi|^2 = 0.306
==== e(  12) =    18.48062 eV ==== 
     psi = 0.026*[#   2]+0.026*[#   3]+0.026*[#   4]+0.026*[#   6]+0.026*[#   7]
          +0.026*[#   8]
    |psi|^2 = 0.158
==== e(  13) =    19.46037 eV ==== 
     psi = 0.039*[#   2]+0.039*[#   3]+0.039*[#   4]+0.039*[#   6]+0.039*[#   7]
          +0.039*[#   8]+0.035*[#   1]+0.035*[#   5]
    |psi|^2 = 0.306
==== e(  14) =    22.61997 eV ==== 
     psi = 0.008*[#   2]+0.008*[#   3]+0.008*[#   4]+0.008*[#   6]+0.008*[#   7]
          +0.008*[#   8]+0.005*[#   1]+0.005*[#   5]
    |psi|^2 = 0.056
==== e(  15) =    24.21549 eV ==== 
     psi = 0.014*[#   2]+0.014*[#   3]+0.014*[#   4]+0.014*[#   6]+0.014*[#   7]
          +0.014*[#   8]+0.006*[#   1]+0.006*[#   5]
    |psi|^2 = 0.092
==== e(  16) =    24.55975 eV ==== 
 
    |psi|^2 = 0.002

 k =   0.2890625000  0.2890625000  0.5781250000
==== e(   1) =    -3.60504 eV ==== 
     psi = 0.344*[#   1]+0.344*[#   5]+0.051*[#   2]+0.051*[#   3]+0.051*[#   4]
          +0.051*[#   6]+0.051*[#   7]+0.051*[#   8]
    |psi|^2 = 0.996
==== e(   2) =     0.37236 eV ==== 
     psi = 0.163*[#   1]+0.163*[#   5]+0.111*[#   2]+0.111*[#   3]+0.111*[#   4]
          +0.111*[#   6]+0.111*[#   7]+0.111*[#   8]
    |psi|^2 = 0.990
==== e(   3) =     4.12872 eV ==== 
     psi = 0.142*[#   2]+0.142*[#   3]+0.142*[#   4]+0.142*[#   6]+0.142*[#   7]
          +0.142*[#   8]+0.068*[#   1]+0.068*[#   5]
    |psi|^2 = 0.989
==== e(   4) =     4.69639 eV ==== 
     psi = 0.165*[#   2]+0.165*[#   3]+0.165*[#   4]+0.165*[#   6]+0.165*[#   7]
          +0.165*[#   8]
    |psi|^2 = 0.989
==== e(   5) =     8.58820 eV ==== 
     psi = 0.136*[#   1]+0.136*[#   5]+0.095*[#   2]+0.095*[#   3]+0.095*[#   4]
          +0.095*[#   6]+0.095*[#   7]+0.095*[#   8]
    |psi|^2 = 0.842
==== e(   6) =    10.34641 eV ==== 
     psi = 0.102*[#   1]+0.102*[#   5]+0.099*[#   2]+0.099*[#   3]+0.099*[#   4]
          +0.099*[#   6]+0.099*[#   7]+0.099*[#   8]
    |psi|^2 = 0.801
==== e(   7) =    11.00911 eV ==== 
     psi = 0.124*[#   2]+0.124*[#   3]+0.124*[#   4]+0.124*[#   6]+0.124*[#   7]
          +0.124*[#   8]
    |psi|^2 = 0.745
==== e(   8) =    12.32241 eV ==== 
     psi = 0.070*[#   1]+0.070*[#   5]+0.052*[#   2]+0.052*[#   3]+0.052*[#   4]
          +0.052*[#   6]+0.052*[#   7]+0.052*[#   8]
    |psi|^2 = 0.454
==== e(   9) =    15.98968 eV ==== 
     psi = 0.011*[#   2]+0.011*[#   3]+0.011*[#   4]+0.011*[#   6]+0.011*[#   7]
          +0.011*[#   8]+0.009*[#   1]+0.009*[#   5]
    |psi|^2 = 0.085
==== e(  10) =    16.89429 eV ==== 
     psi = 0.010*[#   2]+0.010*[#   3]+0.010*[#   4]+0.010*[#   6]+0.010*[#   7]
          +0.010*[#   8]
    |psi|^2 = 0.063
==== e(  11) =    17.69445 eV ==== 
     psi = 0.057*[#   1]+0.057*[#   5]+0.038*[#   2]+0.038*[#   3]+0.038*[#   4]
          +0.038*[#   6]+0.038*[#   7]+0.038*[#   8]
    |psi|^2 = 0.340
==== e(  12) =    18.73441 eV ==== 
     psi = 0.024*[#   2]+0.024*[#   3]+0.024*[#   4]+0.024*[#   6]+0.024*[#   7]
          +0.024*[#   8]
    |psi|^2 = 0.142
==== e(  13) =    19.62832 eV ==== 
     psi = 0.035*[#   2]+0.035*[#   3]+0.035*[#   4]+0.035*[#   6]+0.035*[#   7]
          +0.035*[#   8]+0.032*[#   1]+0.032*[#   5]
    |psi|^2 = 0.274
==== e(  14) =    22.45094 eV ==== 
     psi = 0.005*[#   2]+0.005*[#   3]+0.005*[#   4]+0.005*[#   6]+0.005*[#   7]
          +0.005*[#   8]+0.005*[#   1]+0.005*[#   5]
    |psi|^2 = 0.041
==== e(  15) =    24.25420 eV ==== 
     psi = 0.015*[#   2]+0.015*[#   3]+0.015*[#   4]+0.015*[#   6]+0.015*[#   7]
          +0.015*[#   8]+0.005*[#   1]+0.005*[#   5]
    |psi|^2 = 0.099
==== e(  16) =    24.32371 eV ==== 
 
    |psi|^2 = 0.001

 k =   0.2812500000  0.2812500000  0.5625000000
==== e(   1) =    -3.69856 eV ==== 
     psi = 0.344*[#   1]+0.344*[#   5]+0.051*[#   2]+0.051*[#   3]+0.051*[#   4]
          +0.051*[#   6]+0.051*[#   7]+0.051*[#   8]
    |psi|^2 = 0.995
==== e(   2) =     0.50748 eV ==== 
     psi = 0.163*[#   1]+0.163*[#   5]+0.111*[#   2]+0.111*[#   3]+0.111*[#   4]
          +0.111*[#   6]+0.111*[#   7]+0.111*[#   8]
    |psi|^2 = 0.990
==== e(   3) =     4.22001 eV ==== 
     psi = 0.142*[#   2]+0.142*[#   3]+0.142*[#   4]+0.142*[#   6]+0.142*[#   7]
          +0.142*[#   8]+0.068*[#   1]+0.068*[#   5]
    |psi|^2 = 0.989
==== e(   4) =     4.71678 eV ==== 
     psi = 0.165*[#   2]+0.165*[#   3]+0.165*[#   4]+0.165*[#   6]+0.165*[#   7]
          +0.165*[#   8]
    |psi|^2 = 0.989
==== e(   5) =     8.61149 eV ==== 
     psi = 0.137*[#   1]+0.137*[#   5]+0.095*[#   2]+0.095*[#   3]+0.095*[#   4]
          +0.095*[#   6]+0.095*[#   7]+0.095*[#   8]
    |psi|^2 = 0.846
==== e(   6) =    10.30237 eV ==== 
     psi = 0.102*[#   2]+0.102*[#   3]+0.102*[#   4]+0.102*[#   6]+0.102*[#   7]
          +0.102*[#   8]+0.101*[#   1]+0.101*[#   5]
    |psi|^2 = 0.810
==== e(   7) =    10.99612 eV ==== 
     psi = 0.125*[#   2]+0.125*[#   3]+0.125*[#   4]+0.125*[#   6]+0.125*[#   7]
          +0.125*[#   8]
    |psi|^2 = 0.751
==== e(   8) =    12.23401 eV ==== 
     psi = 0.070*[#   1]+0.070*[#   5]+0.052*[#   2]+0.052*[#   3]+0.052*[#   4]
          +0.052*[#   6]+0.052*[#   7]+0.052*[#   8]
    |psi|^2 = 0.449
==== e(   9) =    15.97684 eV ==== 
     psi = 0.012*[#   2]+0.012*[#   3]+0.012*[#   4]+0.012*[#   6]+0.012*[#   7]
          +0.012*[#   8]+0.009*[#   1]+0.009*[#   5]
    |psi|^2 = 0.087
==== e(  10) =    16.68150 eV ==== 
     psi = 0.012*[#   2]+0.012*[#   3]+0.012*[#   4]+0.012*[#   6]+0.012*[#   7]
          +0.012*[#   8]
    |psi|^2 = 0.071
==== e(  11) =    17.46379 eV ==== 
     psi = 0.062*[#   1]+0.062*[#   5]+0.040*[#   2]+0.040*[#   3]+0.040*[#   4]
          +0.040*[#   6]+0.040*[#   7]+0.040*[#   8]
    |psi|^2 = 0.364
==== e(  12) =    19.00142 eV ==== 
     psi = 0.022*[#   2]+0.022*[#   3]+0.022*[#   4]+0.022*[#   6]+0.022*[#   7]
          +0.022*[#   8]
    |psi|^2 = 0.130
==== e(  13) =    19.79312 eV ==== 
     psi = 0.032*[#   2]+0.032*[#   3]+0.032*[#   4]+0.032*[#   6]+0.032*[#   7]
          +0.032*[#   8]+0.029*[#   1]+0.029*[#   5]
    |psi|^2 = 0.248
==== e(  14) =    22.27422 eV ==== 
     psi = 0.004*[#   1]+0.004*[#   5]+0.004*[#   2]+0.004*[#   3]+0.004*[#   4]
          +0.004*[#   6]+0.004*[#   7]+0.004*[#   8]
    |psi|^2 = 0.032
==== e(  15) =    24.09318 eV ==== 
 
    |psi|^2 = 0.001
==== e(  16) =    24.31301 eV ==== 
     psi = 0.015*[#   2]+0.015*[#   3]+0.015*[#   4]+0.015*[#   6]+0.015*[#   7]
          +0.015*[#   8]+0.005*[#   1]+0.005*[#   5]
    |psi|^2 = 0.100

 k =   0.2734375000  0.2734375000  0.5468750000
==== e(   1) =    -3.79243 eV ==== 
     psi = 0.344*[#   1]+0.344*[#   5]+0.051*[#   2]+0.051*[#   3]+0.051*[#   4]
          +0.051*[#   6]+0.051*[#   7]+0.051*[#   8]
    |psi|^2 = 0.995
==== e(   2) =     0.64832 eV ==== 
     psi = 0.163*[#   1]+0.163*[#   5]+0.110*[#   2]+0.110*[#   3]+0.110*[#   4]
          +0.110*[#   6]+0.110*[#   7]+0.110*[#   8]
    |psi|^2 = 0.989
==== e(   3) =     4.31153 eV ==== 
     psi = 0.142*[#   2]+0.142*[#   3]+0.142*[#   4]+0.142*[#   6]+0.142*[#   7]
          +0.142*[#   8]+0.067*[#   1]+0.067*[#   5]
    |psi|^2 = 0.989
==== e(   4) =     4.73985 eV ==== 
     psi = 0.165*[#   2]+0.165*[#   3]+0.165*[#   4]+0.165*[#   6]+0.165*[#   7]
          +0.165*[#   8]
    |psi|^2 = 0.989
==== e(   5) =     8.63572 eV ==== 
     psi = 0.138*[#   1]+0.138*[#   5]+0.096*[#   2]+0.096*[#   3]+0.096*[#   4]
          +0.096*[#   6]+0.096*[#   7]+0.096*[#   8]
    |psi|^2 = 0.850
==== e(   6) =    10.25939 eV ==== 
     psi = 0.104*[#   2]+0.104*[#   3]+0.104*[#   4]+0.104*[#   6]+0.104*[#   7]
          +0.104*[#   8]+0.099*[#   1]+0.099*[#   5]
    |psi|^2 = 0.820
==== e(   7) =    10.98283 eV ==== 
     psi = 0.126*[#   2]+0.126*[#   3]+0.126*[#   4]+0.126*[#   6]+0.126*[#   7]
          +0.126*[#   8]
    |psi|^2 = 0.757
==== e(   8) =    12.15247 eV ==== 
     psi = 0.069*[#   1]+0.069*[#   5]+0.051*[#   2]+0.051*[#   3]+0.051*[#   4]
          +0.051*[#   6]+0.051*[#   7]+0.051*[#   8]
    |psi|^2 = 0.441
==== e(   9) =    15.95998 eV ==== 
     psi = 0.013*[#   2]+0.013*[#   3]+0.013*[#   4]+0.013*[#   6]+0.013*[#   7]
          +0.013*[#   8]+0.009*[#   1]+0.009*[#   5]
    |psi|^2 = 0.093
==== e(  10) =    16.46932 eV ==== 
     psi = 0.013*[#   2]+0.013*[#   3]+0.013*[#   4]+0.013*[#   6]+0.013*[#   7]
          +0.013*[#   8]
    |psi|^2 = 0.076
==== e(  11) =    17.23221 eV ==== 
     psi = 0.066*[#   1]+0.066*[#   5]+0.041*[#   2]+0.041*[#   3]+0.041*[#   4]
          +0.041*[#   6]+0.041*[#   7]+0.041*[#   8]
    |psi|^2 = 0.380
==== e(  12) =    19.26601 eV ==== 
     psi = 0.020*[#   2]+0.020*[#   3]+0.020*[#   4]+0.020*[#   6]+0.020*[#   7]
          +0.020*[#   8]
    |psi|^2 = 0.121
==== e(  13) =    19.93985 eV ==== 
     psi = 0.028*[#   2]+0.028*[#   3]+0.028*[#   4]+0.028*[#   6]+0.028*[#   7]
          +0.028*[#   8]+0.027*[#   1]+0.027*[#   5]
    |psi|^2 = 0.224
==== e(  14) =    22.10638 eV ==== 
     psi = 0.004*[#   1]+0.004*[#   5]+0.003*[#   2]+0.003*[#   3]+0.003*[#   4]
          +0.003*[#   6]+0.003*[#   7]+0.003*[#   8]
    |psi|^2 = 0.027
==== e(  15) =    23.87017 eV ==== 
 
    |psi|^2 = 0.001
==== e(  16) =    24.37149 eV ==== 
     psi = 0.015*[#   2]+0.015*[#   3]+0.015*[#   4]+0.015*[#   6]+0.015*[#   7]
          +0.015*[#   8]+0.005*[#   1]+0.005*[#   5]
    |psi|^2 = 0.097

 k =   0.2656250000  0.2656250000  0.5312500000
==== e(   1) =    -3.88600 eV ==== 
     psi = 0.345*[#   1]+0.345*[#   5]+0.051*[#   2]+0.051*[#   3]+0.051*[#   4]
          +0.051*[#   6]+0.051*[#   7]+0.051*[#   8]
    |psi|^2 = 0.995
==== e(   2) =     0.79460 eV ==== 
     psi = 0.163*[#   1]+0.163*[#   5]+0.111*[#   2]+0.111*[#   3]+0.111*[#   4]
          +0.111*[#   6]+0.111*[#   7]+0.111*[#   8]
    |psi|^2 = 0.989
==== e(   3) =     4.40313 eV ==== 
     psi = 0.143*[#   2]+0.143*[#   3]+0.143*[#   4]+0.143*[#   6]+0.143*[#   7]
          +0.143*[#   8]+0.066*[#   1]+0.066*[#   5]
    |psi|^2 = 0.988
==== e(   4) =     4.76563 eV ==== 
     psi = 0.165*[#   2]+0.165*[#   3]+0.165*[#   4]+0.165*[#   6]+0.165*[#   7]
          +0.165*[#   8]
    |psi|^2 = 0.988
==== e(   5) =     8.66063 eV ==== 
     psi = 0.139*[#   1]+0.139*[#   5]+0.096*[#   2]+0.096*[#   3]+0.096*[#   4]
          +0.096*[#   6]+0.096*[#   7]+0.096*[#   8]
    |psi|^2 = 0.855
==== e(   6) =    10.21742 eV ==== 
     psi = 0.106*[#   2]+0.106*[#   3]+0.106*[#   4]+0.106*[#   6]+0.106*[#   7]
          +0.106*[#   8]+0.098*[#   1]+0.098*[#   5]
    |psi|^2 = 0.830
==== e(   7) =    10.96895 eV ==== 
     psi = 0.127*[#   2]+0.127*[#   3]+0.127*[#   4]+0.127*[#   6]+0.127*[#   7]
          +0.127*[#   8]
    |psi|^2 = 0.763
==== e(   8) =    12.07828 eV ==== 
     psi = 0.068*[#   1]+0.068*[#   5]+0.049*[#   2]+0.049*[#   3]+0.049*[#   4]
          +0.049*[#   6]+0.049*[#   7]+0.049*[#   8]
    |psi|^2 = 0.433
==== e(   9) =    15.93953 eV ==== 
     psi = 0.014*[#   2]+0.014*[#   3]+0.014*[#   4]+0.014*[#   6]+0.014*[#   7]
          +0.014*[#   8]+0.010*[#   1]+0.010*[#   5]
    |psi|^2 = 0.107
==== e(  10) =    16.26137 eV ==== 
     psi = 0.013*[#   2]+0.013*[#   3]+0.013*[#   4]+0.013*[#   6]+0.013*[#   7]
          +0.013*[#   8]
    |psi|^2 = 0.078
==== e(  11) =    17.00341 eV ==== 
     psi = 0.069*[#   1]+0.069*[#   5]+0.041*[#   2]+0.041*[#   3]+0.041*[#   4]
          +0.041*[#   6]+0.041*[#   7]+0.041*[#   8]
    |psi|^2 = 0.386
==== e(  12) =    19.52848 eV ==== 
     psi = 0.019*[#   2]+0.019*[#   3]+0.019*[#   4]+0.019*[#   6]+0.019*[#   7]
          +0.019*[#   8]
    |psi|^2 = 0.113
==== e(  13) =    20.05081 eV ==== 
     psi = 0.025*[#   2]+0.025*[#   3]+0.025*[#   4]+0.025*[#   6]+0.025*[#   7]
          +0.025*[#   8]+0.025*[#   1]+0.025*[#   5]
    |psi|^2 = 0.200
==== e(  14) =    21.96923 eV ==== 
     psi = 0.004*[#   1]+0.004*[#   5]+0.003*[#   2]+0.003*[#   3]+0.003*[#   4]
          +0.003*[#   6]+0.003*[#   7]+0.003*[#   8]
    |psi|^2 = 0.029
==== e(  15) =    23.65730 eV ==== 
 
    |psi|^2 = 0.001
==== e(  16) =    24.41077 eV ==== 
     psi = 0.013*[#   2]+0.013*[#   3]+0.013*[#   4]+0.013*[#   6]+0.013*[#   7]
          +0.013*[#   8]+0.004*[#   1]+0.004*[#   5]
    |psi|^2 = 0.089

 k =   0.2578125000  0.2578125000  0.5156250000
==== e(   1) =    -3.97884 eV ==== 
     psi = 0.346*[#   1]+0.346*[#   5]+0.051*[#   2]+0.051*[#   3]+0.051*[#   4]
          +0.051*[#   6]+0.051*[#   7]+0.051*[#   8]
    |psi|^2 = 0.995
==== e(   2) =     0.94589 eV ==== 
     psi = 0.163*[#   1]+0.163*[#   5]+0.111*[#   2]+0.111*[#   3]+0.111*[#   4]
          +0.111*[#   6]+0.111*[#   7]+0.111*[#   8]
    |psi|^2 = 0.989
==== e(   3) =     4.49467 eV ==== 
     psi = 0.143*[#   2]+0.143*[#   3]+0.143*[#   4]+0.143*[#   6]+0.143*[#   7]
          +0.143*[#   8]+0.065*[#   1]+0.065*[#   5]
    |psi|^2 = 0.988
==== e(   4) =     4.79409 eV ==== 
     psi = 0.165*[#   2]+0.165*[#   3]+0.165*[#   4]+0.165*[#   6]+0.165*[#   7]
          +0.165*[#   8]
    |psi|^2 = 0.988
==== e(   5) =     8.68588 eV ==== 
     psi = 0.139*[#   1]+0.139*[#   5]+0.097*[#   2]+0.097*[#   3]+0.097*[#   4]
          +0.097*[#   6]+0.097*[#   7]+0.097*[#   8]
    |psi|^2 = 0.860
==== e(   6) =    10.17631 eV ==== 
     psi = 0.108*[#   2]+0.108*[#   3]+0.108*[#   4]+0.108*[#   6]+0.108*[#   7]
          +0.108*[#   8]+0.096*[#   1]+0.096*[#   5]
    |psi|^2 = 0.840
==== e(   7) =    10.95408 eV ==== 
     psi = 0.128*[#   2]+0.128*[#   3]+0.128*[#   4]+0.128*[#   6]+0.128*[#   7]
          +0.128*[#   8]
    |psi|^2 = 0.770
==== e(   8) =    12.01194 eV ==== 
     psi = 0.068*[#   1]+0.068*[#   5]+0.048*[#   2]+0.048*[#   3]+0.048*[#   4]
          +0.048*[#   6]+0.048*[#   7]+0.048*[#   8]
    |psi|^2 = 0.423
==== e(   9) =    15.91315 eV ==== 
     psi = 0.018*[#   2]+0.018*[#   3]+0.018*[#   4]+0.018*[#   6]+0.018*[#   7]
          +0.018*[#   8]+0.013*[#   1]+0.013*[#   5]
    |psi|^2 = 0.132
==== e(  10) =    16.05905 eV ==== 
     psi = 0.013*[#   2]+0.013*[#   3]+0.013*[#   4]+0.013*[#   6]+0.013*[#   7]
          +0.013*[#   8]
    |psi|^2 = 0.080
==== e(  11) =    16.78147 eV ==== 
     psi = 0.071*[#   1]+0.071*[#   5]+0.039*[#   2]+0.039*[#   3]+0.039*[#   4]
          +0.039*[#   6]+0.039*[#   7]+0.039*[#   8]
    |psi|^2 = 0.379
==== e(  12) =    19.78468 eV ==== 
     psi = 0.018*[#   2]+0.018*[#   3]+0.018*[#   4]+0.018*[#   6]+0.018*[#   7]
          +0.018*[#   8]
    |psi|^2 = 0.106
==== e(  13) =    20.10567 eV ==== 
     psi = 0.022*[#   1]+0.022*[#   5]+0.021*[#   2]+0.021*[#   3]+0.021*[#   4]
          +0.021*[#   6]+0.021*[#   7]+0.021*[#   8]
    |psi|^2 = 0.171
==== e(  14) =    21.88362 eV ==== 
     psi = 0.005*[#   2]+0.005*[#   3]+0.005*[#   4]+0.005*[#   6]+0.005*[#   7]
          +0.005*[#   8]+0.004*[#   1]+0.004*[#   5]
    |psi|^2 = 0.036
==== e(  15) =    23.45807 eV ==== 
 
    |psi|^2 = 0.001
==== e(  16) =    24.40536 eV ==== 
     psi = 0.011*[#   2]+0.011*[#   3]+0.011*[#   4]+0.011*[#   6]+0.011*[#   7]
          +0.011*[#   8]+0.004*[#   1]+0.004*[#   5]
    |psi|^2 = 0.074

 k =   0.2500000000  0.2500000000  0.5000000000
==== e(   1) =    -4.07090 eV ==== 
     psi = 0.347*[#   1]+0.347*[#   5]+0.050*[#   2]+0.050*[#   3]+0.050*[#   4]
          +0.050*[#   6]+0.050*[#   7]+0.050*[#   8]
    |psi|^2 = 0.995
==== e(   2) =     1.10179 eV ==== 
     psi = 0.162*[#   1]+0.162*[#   5]+0.111*[#   2]+0.111*[#   3]+0.111*[#   4]
          +0.111*[#   6]+0.111*[#   7]+0.111*[#   8]
    |psi|^2 = 0.989
==== e(   3) =     4.58593 eV ==== 
     psi = 0.143*[#   2]+0.143*[#   3]+0.143*[#   4]+0.143*[#   6]+0.143*[#   7]
          +0.143*[#   8]+0.064*[#   1]+0.064*[#   5]
    |psi|^2 = 0.987
==== e(   4) =     4.82507 eV ==== 
     psi = 0.165*[#   2]+0.165*[#   3]+0.165*[#   4]+0.165*[#   6]+0.165*[#   7]
          +0.165*[#   8]
    |psi|^2 = 0.988
==== e(   5) =     8.71041 eV ==== 
     psi = 0.140*[#   1]+0.140*[#   5]+0.098*[#   2]+0.098*[#   3]+0.098*[#   4]
          +0.098*[#   6]+0.098*[#   7]+0.098*[#   8]
    |psi|^2 = 0.866
==== e(   6) =    10.13583 eV ==== 
     psi = 0.110*[#   2]+0.110*[#   3]+0.110*[#   4]+0.110*[#   6]+0.110*[#   7]
          +0.110*[#   8]+0.095*[#   1]+0.095*[#   5]
    |psi|^2 = 0.851
==== e(   7) =    10.93720 eV ==== 
     psi = 0.130*[#   2]+0.130*[#   3]+0.130*[#   4]+0.130*[#   6]+0.130*[#   7]
          +0.130*[#   8]
    |psi|^2 = 0.778
==== e(   8) =    11.95299 eV ==== 
     psi = 0.067*[#   1]+0.067*[#   5]+0.047*[#   2]+0.047*[#   3]+0.047*[#   4]
          +0.047*[#   6]+0.047*[#   7]+0.047*[#   8]
    |psi|^2 = 0.413
==== e(   9) =    15.85705 eV ==== 
     psi = 0.013*[#   2]+0.013*[#   3]+0.013*[#   4]+0.013*[#   6]+0.013*[#   7]
          +0.013*[#   8]
    |psi|^2 = 0.079
==== e(  10) =    15.87473 eV ==== 
     psi = 0.023*[#   2]+0.023*[#   3]+0.023*[#   4]+0.023*[#   6]+0.023*[#   7]
          +0.023*[#   8]+0.019*[#   1]+0.019*[#   5]
    |psi|^2 = 0.179
==== e(  11) =    16.57293 eV ==== 
     psi = 0.069*[#   1]+0.069*[#   5]+0.035*[#   2]+0.035*[#   3]+0.035*[#   4]
          +0.035*[#   6]+0.035*[#   7]+0.035*[#   8]
    |psi|^2 = 0.349
==== e(  12) =    20.02479 eV ==== 
     psi = 0.017*[#   2]+0.017*[#   3]+0.017*[#   4]+0.017*[#   6]+0.017*[#   7]
          +0.017*[#   8]
    |psi|^2 = 0.099
==== e(  13) =    20.08893 eV ==== 
     psi = 0.020*[#   1]+0.020*[#   5]+0.017*[#   2]+0.017*[#   3]+0.017*[#   4]
          +0.017*[#   6]+0.017*[#   7]+0.017*[#   8]
    |psi|^2 = 0.141
==== e(  14) =    21.85774 eV ==== 
     psi = 0.006*[#   2]+0.006*[#   3]+0.006*[#   4]+0.006*[#   6]+0.006*[#   7]
          +0.006*[#   8]+0.005*[#   1]+0.005*[#   5]
    |psi|^2 = 0.048
==== e(  15) =    23.27716 eV ==== 
 
    |psi|^2 = 0.001
==== e(  16) =    24.33554 eV ==== 
     psi = 0.008*[#   2]+0.008*[#   3]+0.008*[#   4]+0.008*[#   6]+0.008*[#   7]
          +0.008*[#   8]+0.004*[#   1]+0.004*[#   5]
    |psi|^2 = 0.057

 k =   0.2421875000  0.2421875000  0.4843750000
==== e(   1) =    -4.16110 eV ==== 
     psi = 0.349*[#   1]+0.349*[#   5]+0.049*[#   2]+0.049*[#   3]+0.049*[#   4]
          +0.049*[#   6]+0.049*[#   7]+0.049*[#   8]
    |psi|^2 = 0.995
==== e(   2) =     1.26238 eV ==== 
     psi = 0.161*[#   1]+0.161*[#   5]+0.111*[#   2]+0.111*[#   3]+0.111*[#   4]
          +0.111*[#   6]+0.111*[#   7]+0.111*[#   8]
    |psi|^2 = 0.989
==== e(   3) =     4.67746 eV ==== 
     psi = 0.144*[#   2]+0.144*[#   3]+0.144*[#   4]+0.144*[#   6]+0.144*[#   7]
          +0.144*[#   8]+0.062*[#   1]+0.062*[#   5]
    |psi|^2 = 0.987
==== e(   4) =     4.85892 eV ==== 
     psi = 0.165*[#   2]+0.165*[#   3]+0.165*[#   4]+0.165*[#   6]+0.165*[#   7]
          +0.165*[#   8]
    |psi|^2 = 0.987
==== e(   5) =     8.73613 eV ==== 
     psi = 0.141*[#   1]+0.141*[#   5]+0.098*[#   2]+0.098*[#   3]+0.098*[#   4]
          +0.098*[#   6]+0.098*[#   7]+0.098*[#   8]
    |psi|^2 = 0.872
==== e(   6) =    10.09601 eV ==== 
     psi = 0.112*[#   2]+0.112*[#   3]+0.112*[#   4]+0.112*[#   6]+0.112*[#   7]
          +0.112*[#   8]+0.094*[#   1]+0.094*[#   5]
    |psi|^2 = 0.861
==== e(   7) =    10.91975 eV ==== 
     psi = 0.131*[#   2]+0.131*[#   3]+0.131*[#   4]+0.131*[#   6]+0.131*[#   7]
          +0.131*[#   8]
    |psi|^2 = 0.786
==== e(   8) =    11.90557 eV ==== 
     psi = 0.066*[#   1]+0.066*[#   5]+0.045*[#   2]+0.045*[#   3]+0.045*[#   4]
          +0.045*[#   6]+0.045*[#   7]+0.045*[#   8]
    |psi|^2 = 0.402
==== e(   9) =    15.67348 eV ==== 
     psi = 0.013*[#   2]+0.013*[#   3]+0.013*[#   4]+0.013*[#   6]+0.013*[#   7]
          +0.013*[#   8]
    |psi|^2 = 0.078
==== e(  10) =    15.81488 eV ==== 
     psi = 0.033*[#   2]+0.033*[#   3]+0.033*[#   4]+0.033*[#   6]+0.033*[#   7]
          +0.033*[#   8]+0.032*[#   1]+0.032*[#   5]
    |psi|^2 = 0.261
==== e(  11) =    16.39172 eV ==== 
     psi = 0.061*[#   1]+0.061*[#   5]+0.026*[#   2]+0.026*[#   3]+0.026*[#   4]
          +0.026*[#   6]+0.026*[#   7]+0.026*[#   8]
    |psi|^2 = 0.281
==== e(  12) =    20.00197 eV ==== 
     psi = 0.017*[#   1]+0.017*[#   5]+0.013*[#   2]+0.013*[#   3]+0.013*[#   4]
          +0.013*[#   6]+0.013*[#   7]+0.013*[#   8]
    |psi|^2 = 0.112
==== e(  13) =    20.25258 eV ==== 
     psi = 0.015*[#   2]+0.015*[#   3]+0.015*[#   4]+0.015*[#   6]+0.015*[#   7]
          +0.015*[#   8]
    |psi|^2 = 0.092
==== e(  14) =    21.90843 eV ==== 
     psi = 0.008*[#   2]+0.008*[#   3]+0.008*[#   4]+0.008*[#   6]+0.008*[#   7]
          +0.008*[#   8]+0.005*[#   1]+0.005*[#   5]
    |psi|^2 = 0.059
==== e(  15) =    23.12574 eV ==== 
 
    |psi|^2 = 0.003
==== e(  16) =    24.22152 eV ==== 
     psi = 0.006*[#   2]+0.006*[#   3]+0.006*[#   4]+0.006*[#   6]+0.006*[#   7]
          +0.006*[#   8]+0.003*[#   1]+0.003*[#   5]
    |psi|^2 = 0.044

 k =   0.2343750000  0.2343750000  0.4687500000
==== e(   1) =    -4.24984 eV ==== 
     psi = 0.351*[#   1]+0.351*[#   5]+0.049*[#   2]+0.049*[#   3]+0.049*[#   4]
          +0.049*[#   6]+0.049*[#   7]+0.049*[#   8]
    |psi|^2 = 0.995
==== e(   2) =     1.42664 eV ==== 
     psi = 0.160*[#   1]+0.160*[#   5]+0.112*[#   2]+0.112*[#   3]+0.112*[#   4]
          +0.112*[#   6]+0.112*[#   7]+0.112*[#   8]
    |psi|^2 = 0.989
==== e(   3) =     4.76801 eV ==== 
     psi = 0.144*[#   2]+0.144*[#   3]+0.144*[#   4]+0.144*[#   6]+0.144*[#   7]
          +0.144*[#   8]+0.061*[#   1]+0.061*[#   5]
    |psi|^2 = 0.987
==== e(   4) =     4.89533 eV ==== 
     psi = 0.164*[#   2]+0.164*[#   3]+0.164*[#   4]+0.164*[#   6]+0.164*[#   7]
          +0.164*[#   8]
    |psi|^2 = 0.987
==== e(   5) =     8.76030 eV ==== 
     psi = 0.141*[#   1]+0.141*[#   5]+0.099*[#   2]+0.099*[#   3]+0.099*[#   4]
          +0.099*[#   6]+0.099*[#   7]+0.099*[#   8]
    |psi|^2 = 0.878
==== e(   6) =    10.05623 eV ==== 
     psi = 0.114*[#   2]+0.114*[#   3]+0.114*[#   4]+0.114*[#   6]+0.114*[#   7]
          +0.114*[#   8]+0.092*[#   1]+0.092*[#   5]
    |psi|^2 = 0.872
==== e(   7) =    10.89915 eV ==== 
     psi = 0.133*[#   2]+0.133*[#   3]+0.133*[#   4]+0.133*[#   6]+0.133*[#   7]
          +0.133*[#   8]
    |psi|^2 = 0.795
==== e(   8) =    11.86568 eV ==== 
     psi = 0.065*[#   1]+0.065*[#   5]+0.044*[#   2]+0.044*[#   3]+0.044*[#   4]
          +0.044*[#   6]+0.044*[#   7]+0.044*[#   8]
    |psi|^2 = 0.391
==== e(   9) =    15.49343 eV ==== 
     psi = 0.013*[#   2]+0.013*[#   3]+0.013*[#   4]+0.013*[#   6]+0.013*[#   7]
          +0.013*[#   8]
    |psi|^2 = 0.075
==== e(  10) =    15.71269 eV ==== 
     psi = 0.053*[#   1]+0.053*[#   5]+0.045*[#   2]+0.045*[#   3]+0.045*[#   4]
          +0.045*[#   6]+0.045*[#   7]+0.045*[#   8]
    |psi|^2 = 0.374
==== e(  11) =    16.25384 eV ==== 
     psi = 0.045*[#   1]+0.045*[#   5]+0.015*[#   2]+0.015*[#   3]+0.015*[#   4]
          +0.015*[#   6]+0.015*[#   7]+0.015*[#   8]
    |psi|^2 = 0.182
==== e(  12) =    19.85828 eV ==== 
     psi = 0.015*[#   1]+0.015*[#   5]+0.010*[#   2]+0.010*[#   3]+0.010*[#   4]
          +0.010*[#   6]+0.010*[#   7]+0.010*[#   8]
    |psi|^2 = 0.089
==== e(  13) =    20.44849 eV ==== 
     psi = 0.014*[#   2]+0.014*[#   3]+0.014*[#   4]+0.014*[#   6]+0.014*[#   7]
          +0.014*[#   8]
    |psi|^2 = 0.085
==== e(  14) =    21.98764 eV ==== 
     psi = 0.009*[#   2]+0.009*[#   3]+0.009*[#   4]+0.009*[#   6]+0.009*[#   7]
          +0.009*[#   8]+0.005*[#   1]+0.005*[#   5]
    |psi|^2 = 0.064
==== e(  15) =    23.00724 eV ==== 
 
    |psi|^2 = 0.005
==== e(  16) =    24.08114 eV ==== 
     psi = 0.005*[#   2]+0.005*[#   3]+0.005*[#   4]+0.005*[#   6]+0.005*[#   7]
          +0.005*[#   8]+0.003*[#   1]+0.003*[#   5]
    |psi|^2 = 0.039

 k =   0.2265625000  0.2265625000  0.4531250000
==== e(   1) =    -4.33674 eV ==== 
     psi = 0.354*[#   1]+0.354*[#   5]+0.048*[#   2]+0.048*[#   3]+0.048*[#   4]
          +0.048*[#   6]+0.048*[#   7]+0.048*[#   8]
    |psi|^2 = 0.995
==== e(   2) =     1.59466 eV ==== 
     psi = 0.158*[#   1]+0.158*[#   5]+0.112*[#   2]+0.112*[#   3]+0.112*[#   4]
          +0.112*[#   6]+0.112*[#   7]+0.112*[#   8]
    |psi|^2 = 0.988
==== e(   3) =     4.85793 eV ==== 
     psi = 0.145*[#   2]+0.145*[#   3]+0.145*[#   4]+0.145*[#   6]+0.145*[#   7]
          +0.145*[#   8]+0.059*[#   1]+0.059*[#   5]
    |psi|^2 = 0.986
==== e(   4) =     4.93434 eV ==== 
     psi = 0.164*[#   2]+0.164*[#   3]+0.164*[#   4]+0.164*[#   6]+0.164*[#   7]
          +0.164*[#   8]
    |psi|^2 = 0.987
==== e(   5) =     8.78351 eV ==== 
     psi = 0.141*[#   1]+0.141*[#   5]+0.100*[#   2]+0.100*[#   3]+0.100*[#   4]
          +0.100*[#   6]+0.100*[#   7]+0.100*[#   8]
    |psi|^2 = 0.884
==== e(   6) =    10.01647 eV ==== 
     psi = 0.117*[#   2]+0.117*[#   3]+0.117*[#   4]+0.117*[#   6]+0.117*[#   7]
          +0.117*[#   8]+0.091*[#   1]+0.091*[#   5]
    |psi|^2 = 0.882
==== e(   7) =    10.87565 eV ==== 
     psi = 0.134*[#   2]+0.134*[#   3]+0.134*[#   4]+0.134*[#   6]+0.134*[#   7]
          +0.134*[#   8]
    |psi|^2 = 0.805
==== e(   8) =    11.83538 eV ==== 
     psi = 0.064*[#   1]+0.064*[#   5]+0.042*[#   2]+0.042*[#   3]+0.042*[#   4]
          +0.042*[#   6]+0.042*[#   7]+0.042*[#   8]
    |psi|^2 = 0.381
==== e(   9) =    15.32216 eV ==== 
     psi = 0.012*[#   2]+0.012*[#   3]+0.012*[#   4]+0.012*[#   6]+0.012*[#   7]
          +0.012*[#   8]
    |psi|^2 = 0.072
==== e(  10) =    15.56188 eV ==== 
     psi = 0.074*[#   1]+0.074*[#   5]+0.054*[#   2]+0.054*[#   3]+0.054*[#   4]
          +0.054*[#   6]+0.054*[#   7]+0.054*[#   8]
    |psi|^2 = 0.471
==== e(  11) =    16.16836 eV ==== 
     psi = 0.029*[#   1]+0.029*[#   5]+0.007*[#   2]+0.007*[#   3]+0.007*[#   4]
          +0.007*[#   6]+0.007*[#   7]+0.007*[#   8]
    |psi|^2 = 0.097
==== e(  12) =    19.67742 eV ==== 
     psi = 0.013*[#   1]+0.013*[#   5]+0.007*[#   2]+0.007*[#   3]+0.007*[#   4]
          +0.007*[#   6]+0.007*[#   7]+0.007*[#   8]
    |psi|^2 = 0.072
==== e(  13) =    20.60148 eV ==== 
     psi = 0.013*[#   2]+0.013*[#   3]+0.013*[#   4]+0.013*[#   6]+0.013*[#   7]
          +0.013*[#   8]
    |psi|^2 = 0.076
==== e(  14) =    22.07394 eV ==== 
     psi = 0.009*[#   2]+0.009*[#   3]+0.009*[#   4]+0.009*[#   6]+0.009*[#   7]
          +0.009*[#   8]+0.005*[#   1]+0.005*[#   5]
    |psi|^2 = 0.063
==== e(  15) =    22.93850 eV ==== 
     psi = 0.001*[#   2]+0.001*[#   3]+0.001*[#   4]+0.001*[#   6]+0.001*[#   7]
          +0.001*[#   8]
    |psi|^2 = 0.009
==== e(  16) =    23.95419 eV ==== 
     psi = 0.005*[#   2]+0.005*[#   3]+0.005*[#   4]+0.005*[#   6]+0.005*[#   7]
          +0.005*[#   8]+0.004*[#   1]+0.004*[#   5]
    |psi|^2 = 0.039

 k =   0.2187500000  0.2187500000  0.4375000000
==== e(   1) =    -4.42160 eV ==== 
     psi = 0.357*[#   1]+0.357*[#   5]+0.047*[#   2]+0.047*[#   3]+0.047*[#   4]
          +0.047*[#   6]+0.047*[#   7]+0.047*[#   8]
    |psi|^2 = 0.995
==== e(   2) =     1.76621 eV ==== 
     psi = 0.156*[#   1]+0.156*[#   5]+0.113*[#   2]+0.113*[#   3]+0.113*[#   4]
          +0.113*[#   6]+0.113*[#   7]+0.113*[#   8]
    |psi|^2 = 0.988
==== e(   3) =     4.94707 eV ==== 
     psi = 0.145*[#   2]+0.145*[#   3]+0.145*[#   4]+0.145*[#   6]+0.145*[#   7]
          +0.145*[#   8]+0.057*[#   1]+0.057*[#   5]
    |psi|^2 = 0.985
==== e(   4) =     4.97590 eV ==== 
     psi = 0.164*[#   2]+0.164*[#   3]+0.164*[#   4]+0.164*[#   6]+0.164*[#   7]
          +0.164*[#   8]
    |psi|^2 = 0.986
==== e(   5) =     8.80553 eV ==== 
     psi = 0.140*[#   1]+0.140*[#   5]+0.102*[#   2]+0.102*[#   3]+0.102*[#   4]
          +0.102*[#   6]+0.102*[#   7]+0.102*[#   8]
    |psi|^2 = 0.891
==== e(   6) =     9.97656 eV ==== 
     psi = 0.118*[#   2]+0.118*[#   3]+0.118*[#   4]+0.118*[#   6]+0.118*[#   7]
          +0.118*[#   8]+0.091*[#   1]+0.091*[#   5]
    |psi|^2 = 0.892
==== e(   7) =    10.84873 eV ==== 
     psi = 0.136*[#   2]+0.136*[#   3]+0.136*[#   4]+0.136*[#   6]+0.136*[#   7]
          +0.136*[#   8]
    |psi|^2 = 0.815
==== e(   8) =    11.81483 eV ==== 
     psi = 0.063*[#   1]+0.063*[#   5]+0.041*[#   2]+0.041*[#   3]+0.041*[#   4]
          +0.041*[#   6]+0.041*[#   7]+0.041*[#   8]
    |psi|^2 = 0.372
==== e(   9) =    15.16030 eV ==== 
     psi = 0.011*[#   2]+0.011*[#   3]+0.011*[#   4]+0.011*[#   6]+0.011*[#   7]
          +0.011*[#   8]
    |psi|^2 = 0.068
==== e(  10) =    15.37558 eV ==== 
     psi = 0.089*[#   1]+0.089*[#   5]+0.058*[#   2]+0.058*[#   3]+0.058*[#   4]
          +0.058*[#   6]+0.058*[#   7]+0.058*[#   8]
    |psi|^2 = 0.527
==== e(  11) =    16.12237 eV ==== 
     psi = 0.018*[#   1]+0.018*[#   5]+0.003*[#   2]+0.003*[#   3]+0.003*[#   4]
          +0.003*[#   6]+0.003*[#   7]+0.003*[#   8]
    |psi|^2 = 0.052
==== e(  12) =    19.47432 eV ==== 
     psi = 0.012*[#   1]+0.012*[#   5]+0.006*[#   2]+0.006*[#   3]+0.006*[#   4]
          +0.006*[#   6]+0.006*[#   7]+0.006*[#   8]
    |psi|^2 = 0.058
==== e(  13) =    20.69774 eV ==== 
     psi = 0.011*[#   2]+0.011*[#   3]+0.011*[#   4]+0.011*[#   6]+0.011*[#   7]
          +0.011*[#   8]
    |psi|^2 = 0.066
==== e(  14) =    22.13422 eV ==== 
     psi = 0.008*[#   2]+0.008*[#   3]+0.008*[#   4]+0.008*[#   6]+0.008*[#   7]
          +0.008*[#   8]+0.004*[#   1]+0.004*[#   5]
    |psi|^2 = 0.056
==== e(  15) =    22.93331 eV ==== 
     psi = 0.002*[#   2]+0.002*[#   3]+0.002*[#   4]+0.002*[#   6]+0.002*[#   7]
          +0.002*[#   8]
    |psi|^2 = 0.014
==== e(  16) =    23.87067 eV ==== 
     psi = 0.006*[#   2]+0.006*[#   3]+0.006*[#   4]+0.006*[#   6]+0.006*[#   7]
          +0.006*[#   8]+0.004*[#   1]+0.004*[#   5]
    |psi|^2 = 0.044

 k =   0.2109375000  0.2109375000  0.4218750000
==== e(   1) =    -4.50428 eV ==== 
     psi = 0.360*[#   1]+0.360*[#   5]+0.046*[#   2]+0.046*[#   3]+0.046*[#   4]
          +0.046*[#   6]+0.046*[#   7]+0.046*[#   8]
    |psi|^2 = 0.995
==== e(   2) =     1.94108 eV ==== 
     psi = 0.154*[#   1]+0.154*[#   5]+0.113*[#   2]+0.113*[#   3]+0.113*[#   4]
          +0.113*[#   6]+0.113*[#   7]+0.113*[#   8]
    |psi|^2 = 0.988
==== e(   3) =     5.01997 eV ==== 
     psi = 0.164*[#   2]+0.164*[#   3]+0.164*[#   4]+0.164*[#   6]+0.164*[#   7]
          +0.164*[#   8]
    |psi|^2 = 0.986
==== e(   4) =     5.03530 eV ==== 
     psi = 0.146*[#   2]+0.146*[#   3]+0.146*[#   4]+0.146*[#   6]+0.146*[#   7]
          +0.146*[#   8]+0.055*[#   1]+0.055*[#   5]
    |psi|^2 = 0.985
==== e(   5) =     8.82618 eV ==== 
     psi = 0.140*[#   1]+0.140*[#   5]+0.103*[#   2]+0.103*[#   3]+0.103*[#   4]
          +0.103*[#   6]+0.103*[#   7]+0.103*[#   8]
    |psi|^2 = 0.897
==== e(   6) =     9.93635 eV ==== 
     psi = 0.120*[#   2]+0.120*[#   3]+0.120*[#   4]+0.120*[#   6]+0.120*[#   7]
          +0.120*[#   8]+0.090*[#   1]+0.090*[#   5]
    |psi|^2 = 0.902
==== e(   7) =    10.81781 eV ==== 
     psi = 0.138*[#   2]+0.138*[#   3]+0.138*[#   4]+0.138*[#   6]+0.138*[#   7]
          +0.138*[#   8]
    |psi|^2 = 0.825
==== e(   8) =    11.80403 eV ==== 
     psi = 0.063*[#   1]+0.063*[#   5]+0.040*[#   2]+0.040*[#   3]+0.040*[#   4]
          +0.040*[#   6]+0.040*[#   7]+0.040*[#   8]
    |psi|^2 = 0.365
==== e(   9) =    15.00848 eV ==== 
     psi = 0.011*[#   2]+0.011*[#   3]+0.011*[#   4]+0.011*[#   6]+0.011*[#   7]
          +0.011*[#   8]
    |psi|^2 = 0.063
==== e(  10) =    15.17085 eV ==== 
     psi = 0.099*[#   1]+0.099*[#   5]+0.059*[#   2]+0.059*[#   3]+0.059*[#   4]
          +0.059*[#   6]+0.059*[#   7]+0.059*[#   8]
    |psi|^2 = 0.555
==== e(  11) =    16.09889 eV ==== 
     psi = 0.012*[#   1]+0.012*[#   5]+0.001*[#   2]+0.001*[#   3]+0.001*[#   4]
          +0.001*[#   6]+0.001*[#   7]+0.001*[#   8]
    |psi|^2 = 0.031
==== e(  12) =    19.25920 eV ==== 
     psi = 0.011*[#   1]+0.011*[#   5]+0.004*[#   2]+0.004*[#   3]+0.004*[#   4]
          +0.004*[#   6]+0.004*[#   7]+0.004*[#   8]
    |psi|^2 = 0.049
==== e(  13) =    20.72942 eV ==== 
     psi = 0.009*[#   2]+0.009*[#   3]+0.009*[#   4]+0.009*[#   6]+0.009*[#   7]
          +0.009*[#   8]
    |psi|^2 = 0.056
==== e(  14) =    22.13987 eV ==== 
     psi = 0.007*[#   2]+0.007*[#   3]+0.007*[#   4]+0.007*[#   6]+0.007*[#   7]
          +0.007*[#   8]+0.003*[#   1]+0.003*[#   5]
    |psi|^2 = 0.046
==== e(  15) =    22.99952 eV ==== 
     psi = 0.003*[#   2]+0.003*[#   3]+0.003*[#   4]+0.003*[#   6]+0.003*[#   7]
          +0.003*[#   8]
    |psi|^2 = 0.021
==== e(  16) =    23.85544 eV ==== 
     psi = 0.007*[#   2]+0.007*[#   3]+0.007*[#   4]+0.007*[#   6]+0.007*[#   7]
          +0.007*[#   8]+0.005*[#   1]+0.005*[#   5]
    |psi|^2 = 0.052

 k =   0.2031250000  0.2031250000  0.4062500000
==== e(   1) =    -4.58471 eV ==== 
     psi = 0.363*[#   1]+0.363*[#   5]+0.045*[#   2]+0.045*[#   3]+0.045*[#   4]
          +0.045*[#   6]+0.045*[#   7]+0.045*[#   8]
    |psi|^2 = 0.995
==== e(   2) =     2.11904 eV ==== 
     psi = 0.152*[#   1]+0.152*[#   5]+0.114*[#   2]+0.114*[#   3]+0.114*[#   4]
          +0.114*[#   6]+0.114*[#   7]+0.114*[#   8]
    |psi|^2 = 0.987
==== e(   3) =     5.06630 eV ==== 
     psi = 0.164*[#   2]+0.164*[#   3]+0.164*[#   4]+0.164*[#   6]+0.164*[#   7]
          +0.164*[#   8]
    |psi|^2 = 0.985
==== e(   4) =     5.12245 eV ==== 
     psi = 0.146*[#   2]+0.146*[#   3]+0.146*[#   4]+0.146*[#   6]+0.146*[#   7]
          +0.146*[#   8]+0.053*[#   1]+0.053*[#   5]
    |psi|^2 = 0.984
==== e(   5) =     8.84524 eV ==== 
     psi = 0.139*[#   1]+0.139*[#   5]+0.104*[#   2]+0.104*[#   3]+0.104*[#   4]
          +0.104*[#   6]+0.104*[#   7]+0.104*[#   8]
    |psi|^2 = 0.903
==== e(   6) =     9.89573 eV ==== 
     psi = 0.122*[#   2]+0.122*[#   3]+0.122*[#   4]+0.122*[#   6]+0.122*[#   7]
          +0.122*[#   8]+0.089*[#   1]+0.089*[#   5]
    |psi|^2 = 0.910
==== e(   7) =    10.78066 eV ==== 
     psi = 0.139*[#   2]+0.139*[#   3]+0.139*[#   4]+0.139*[#   6]+0.139*[#   7]
          +0.139*[#   8]
    |psi|^2 = 0.836
==== e(   8) =    11.80171 eV ==== 
     psi = 0.064*[#   1]+0.064*[#   5]+0.039*[#   2]+0.039*[#   3]+0.039*[#   4]
          +0.039*[#   6]+0.039*[#   7]+0.039*[#   8]
    |psi|^2 = 0.360
==== e(   9) =    14.86439 eV ==== 
     psi = 0.010*[#   2]+0.010*[#   3]+0.010*[#   4]+0.010*[#   6]+0.010*[#   7]
          +0.010*[#   8]
    |psi|^2 = 0.057
==== e(  10) =    14.95762 eV ==== 
     psi = 0.106*[#   1]+0.106*[#   5]+0.059*[#   2]+0.059*[#   3]+0.059*[#   4]
          +0.059*[#   6]+0.059*[#   7]+0.059*[#   8]
    |psi|^2 = 0.569
==== e(  11) =    16.08750 eV ==== 
     psi = 0.009*[#   1]+0.009*[#   5]
    |psi|^2 = 0.023
==== e(  12) =    19.03873 eV ==== 
     psi = 0.010*[#   1]+0.010*[#   5]+0.003*[#   2]+0.003*[#   3]+0.003*[#   4]
          +0.003*[#   6]+0.003*[#   7]+0.003*[#   8]
    |psi|^2 = 0.041
==== e(  13) =    20.69605 eV ==== 
     psi = 0.008*[#   2]+0.008*[#   3]+0.008*[#   4]+0.008*[#   6]+0.008*[#   7]
          +0.008*[#   8]
    |psi|^2 = 0.047
==== e(  14) =    22.07811 eV ==== 
     psi = 0.005*[#   2]+0.005*[#   3]+0.005*[#   4]+0.005*[#   6]+0.005*[#   7]
          +0.005*[#   8]+0.002*[#   1]+0.002*[#   5]
    |psi|^2 = 0.035
==== e(  15) =    23.13266 eV ==== 
     psi = 0.004*[#   2]+0.004*[#   3]+0.004*[#   4]+0.004*[#   6]+0.004*[#   7]
          +0.004*[#   8]
    |psi|^2 = 0.026
==== e(  16) =    23.91750 eV ==== 
     psi = 0.008*[#   2]+0.008*[#   3]+0.008*[#   4]+0.008*[#   6]+0.008*[#   7]
          +0.008*[#   8]+0.005*[#   1]+0.005*[#   5]
    |psi|^2 = 0.060

 k =   0.1953125000  0.1953125000  0.3906250000
==== e(   1) =    -4.66262 eV ==== 
     psi = 0.367*[#   1]+0.367*[#   5]+0.044*[#   2]+0.044*[#   3]+0.044*[#   4]
          +0.044*[#   6]+0.044*[#   7]+0.044*[#   8]
    |psi|^2 = 0.995
==== e(   2) =     2.29995 eV ==== 
     psi = 0.149*[#   1]+0.149*[#   5]+0.115*[#   2]+0.115*[#   3]+0.115*[#   4]
          +0.115*[#   6]+0.115*[#   7]+0.115*[#   8]
    |psi|^2 = 0.987
==== e(   3) =     5.11522 eV ==== 
     psi = 0.164*[#   2]+0.164*[#   3]+0.164*[#   4]+0.164*[#   6]+0.164*[#   7]
          +0.164*[#   8]
    |psi|^2 = 0.985
==== e(   4) =     5.20835 eV ==== 
     psi = 0.147*[#   2]+0.147*[#   3]+0.147*[#   4]+0.147*[#   6]+0.147*[#   7]
          +0.147*[#   8]+0.051*[#   1]+0.051*[#   5]
    |psi|^2 = 0.984
==== e(   5) =     8.86252 eV ==== 
     psi = 0.137*[#   1]+0.137*[#   5]+0.106*[#   2]+0.106*[#   3]+0.106*[#   4]
          +0.106*[#   6]+0.106*[#   7]+0.106*[#   8]
    |psi|^2 = 0.909
==== e(   6) =     9.85331 eV ==== 
     psi = 0.123*[#   2]+0.123*[#   3]+0.123*[#   4]+0.123*[#   6]+0.123*[#   7]
          +0.123*[#   8]+0.089*[#   1]+0.089*[#   5]
    |psi|^2 = 0.918
==== e(   7) =    10.74010 eV ==== 
     psi = 0.141*[#   2]+0.141*[#   3]+0.141*[#   4]+0.141*[#   6]+0.141*[#   7]
          +0.141*[#   8]
    |psi|^2 = 0.847
==== e(   8) =    11.80809 eV ==== 
     psi = 0.065*[#   1]+0.065*[#   5]+0.038*[#   2]+0.038*[#   3]+0.038*[#   4]
          +0.038*[#   6]+0.038*[#   7]+0.038*[#   8]
    |psi|^2 = 0.359
==== e(   9) =    14.72945 eV ==== 
     psi = 0.009*[#   2]+0.009*[#   3]+0.009*[#   4]+0.009*[#   6]+0.009*[#   7]
          +0.009*[#   8]
    |psi|^2 = 0.052
==== e(  10) =    14.74237 eV ==== 
     psi = 0.112*[#   1]+0.112*[#   5]+0.059*[#   2]+0.059*[#   3]+0.059*[#   4]
          +0.059*[#   6]+0.059*[#   7]+0.059*[#   8]
    |psi|^2 = 0.575
==== e(  11) =    16.08218 eV ==== 
     psi = 0.007*[#   1]+0.007*[#   5]
    |psi|^2 = 0.019
==== e(  12) =    18.81753 eV ==== 
     psi = 0.010*[#   1]+0.010*[#   5]+0.003*[#   2]+0.003*[#   3]+0.003*[#   4]
          +0.003*[#   6]+0.003*[#   7]+0.003*[#   8]
    |psi|^2 = 0.034
==== e(  13) =    20.61593 eV ==== 
     psi = 0.007*[#   2]+0.007*[#   3]+0.007*[#   4]+0.007*[#   6]+0.007*[#   7]
          +0.007*[#   8]
    |psi|^2 = 0.039
==== e(  14) =    21.95390 eV ==== 
     psi = 0.004*[#   2]+0.004*[#   3]+0.004*[#   4]+0.004*[#   6]+0.004*[#   7]
          +0.004*[#   8]+0.001*[#   1]+0.001*[#   5]
    |psi|^2 = 0.027
==== e(  15) =    23.32164 eV ==== 
     psi = 0.005*[#   2]+0.005*[#   3]+0.005*[#   4]+0.005*[#   6]+0.005*[#   7]
          +0.005*[#   8]
    |psi|^2 = 0.031
==== e(  16) =    24.04700 eV ==== 
     psi = 0.009*[#   2]+0.009*[#   3]+0.009*[#   4]+0.009*[#   6]+0.009*[#   7]
          +0.009*[#   8]+0.006*[#   1]+0.006*[#   5]
    |psi|^2 = 0.065

 k =   0.1875000000  0.1875000000  0.3750000000
==== e(   1) =    -4.73798 eV ==== 
     psi = 0.371*[#   1]+0.371*[#   5]+0.042*[#   2]+0.042*[#   3]+0.042*[#   4]
          +0.042*[#   6]+0.042*[#   7]+0.042*[#   8]
    |psi|^2 = 0.996
==== e(   2) =     2.48359 eV ==== 
     psi = 0.147*[#   1]+0.147*[#   5]+0.116*[#   2]+0.116*[#   3]+0.116*[#   4]
          +0.116*[#   6]+0.116*[#   7]+0.116*[#   8]
    |psi|^2 = 0.987
==== e(   3) =     5.16650 eV ==== 
     psi = 0.164*[#   2]+0.164*[#   3]+0.164*[#   4]+0.164*[#   6]+0.164*[#   7]
          +0.164*[#   8]
    |psi|^2 = 0.984
==== e(   4) =     5.29293 eV ==== 
     psi = 0.148*[#   2]+0.148*[#   3]+0.148*[#   4]+0.148*[#   6]+0.148*[#   7]
          +0.148*[#   8]+0.048*[#   1]+0.048*[#   5]
    |psi|^2 = 0.983
==== e(   5) =     8.87868 eV ==== 
     psi = 0.135*[#   1]+0.135*[#   5]+0.107*[#   2]+0.107*[#   3]+0.107*[#   4]
          +0.107*[#   6]+0.107*[#   7]+0.107*[#   8]
    |psi|^2 = 0.914
==== e(   6) =     9.81208 eV ==== 
     psi = 0.125*[#   2]+0.125*[#   3]+0.125*[#   4]+0.125*[#   6]+0.125*[#   7]
          +0.125*[#   8]+0.089*[#   1]+0.089*[#   5]
    |psi|^2 = 0.925
==== e(   7) =    10.69479 eV ==== 
     psi = 0.143*[#   2]+0.143*[#   3]+0.143*[#   4]+0.143*[#   6]+0.143*[#   7]
          +0.143*[#   8]
    |psi|^2 = 0.858
==== e(   8) =    11.82399 eV ==== 
     psi = 0.067*[#   1]+0.067*[#   5]+0.038*[#   2]+0.038*[#   3]+0.038*[#   4]
          +0.038*[#   6]+0.038*[#   7]+0.038*[#   8]
    |psi|^2 = 0.363
==== e(   9) =    14.52817 eV ==== 
     psi = 0.116*[#   1]+0.116*[#   5]+0.057*[#   2]+0.057*[#   3]+0.057*[#   4]
          +0.057*[#   6]+0.057*[#   7]+0.057*[#   8]
    |psi|^2 = 0.574
==== e(  10) =    14.61326 eV ==== 
     psi = 0.008*[#   2]+0.008*[#   3]+0.008*[#   4]+0.008*[#   6]+0.008*[#   7]
          +0.008*[#   8]
    |psi|^2 = 0.045
==== e(  11) =    16.08055 eV ==== 
     psi = 0.005*[#   1]+0.005*[#   5]+0.001*[#   2]+0.001*[#   3]+0.001*[#   4]
          +0.001*[#   6]+0.001*[#   7]+0.001*[#   8]
    |psi|^2 = 0.017
==== e(  12) =    18.60032 eV ==== 
     psi = 0.009*[#   1]+0.009*[#   5]+0.002*[#   2]+0.002*[#   3]+0.002*[#   4]
          +0.002*[#   6]+0.002*[#   7]+0.002*[#   8]
    |psi|^2 = 0.029
==== e(  13) =    20.50542 eV ==== 
     psi = 0.006*[#   2]+0.006*[#   3]+0.006*[#   4]+0.006*[#   6]+0.006*[#   7]
          +0.006*[#   8]
    |psi|^2 = 0.033
==== e(  14) =    21.79058 eV ==== 
     psi = 0.003*[#   2]+0.003*[#   3]+0.003*[#   4]+0.003*[#   6]+0.003*[#   7]
          +0.003*[#   8]
    |psi|^2 = 0.022
==== e(  15) =    23.55472 eV ==== 
     psi = 0.006*[#   2]+0.006*[#   3]+0.006*[#   4]+0.006*[#   6]+0.006*[#   7]
          +0.006*[#   8]
    |psi|^2 = 0.033
==== e(  16) =    24.22532 eV ==== 
     psi = 0.009*[#   2]+0.009*[#   3]+0.009*[#   4]+0.009*[#   6]+0.009*[#   7]
          +0.009*[#   8]+0.005*[#   1]+0.005*[#   5]
    |psi|^2 = 0.067

 k =   0.1796875000  0.1796875000  0.3593750000
==== e(   1) =    -4.81072 eV ==== 
     psi = 0.376*[#   1]+0.376*[#   5]+0.041*[#   2]+0.041*[#   3]+0.041*[#   4]
          +0.041*[#   6]+0.041*[#   7]+0.041*[#   8]
    |psi|^2 = 0.996
==== e(   2) =     2.66977 eV ==== 
     psi = 0.143*[#   1]+0.143*[#   5]+0.117*[#   2]+0.117*[#   3]+0.117*[#   4]
          +0.117*[#   6]+0.117*[#   7]+0.117*[#   8]
    |psi|^2 = 0.986
==== e(   3) =     5.22001 eV ==== 
     psi = 0.164*[#   2]+0.164*[#   3]+0.164*[#   4]+0.164*[#   6]+0.164*[#   7]
          +0.164*[#   8]
    |psi|^2 = 0.984
==== e(   4) =     5.37590 eV ==== 
     psi = 0.149*[#   2]+0.149*[#   3]+0.149*[#   4]+0.149*[#   6]+0.149*[#   7]
          +0.149*[#   8]+0.045*[#   1]+0.045*[#   5]
    |psi|^2 = 0.982
==== e(   5) =     8.89340 eV ==== 
     psi = 0.132*[#   1]+0.132*[#   5]+0.109*[#   2]+0.109*[#   3]+0.109*[#   4]
          +0.109*[#   6]+0.109*[#   7]+0.109*[#   8]
    |psi|^2 = 0.919
==== e(   6) =     9.77045 eV ==== 
     psi = 0.126*[#   2]+0.126*[#   3]+0.126*[#   4]+0.126*[#   6]+0.126*[#   7]
          +0.126*[#   8]+0.088*[#   1]+0.088*[#   5]
    |psi|^2 = 0.932
==== e(   7) =    10.64298 eV ==== 
     psi = 0.145*[#   2]+0.145*[#   3]+0.145*[#   4]+0.145*[#   6]+0.145*[#   7]
          +0.145*[#   8]
    |psi|^2 = 0.869
==== e(   8) =    11.84625 eV ==== 
     psi = 0.070*[#   1]+0.070*[#   5]+0.039*[#   2]+0.039*[#   3]+0.039*[#   4]
          +0.039*[#   6]+0.039*[#   7]+0.039*[#   8]
    |psi|^2 = 0.373
==== e(   9) =    14.31721 eV ==== 
     psi = 0.119*[#   1]+0.119*[#   5]+0.055*[#   2]+0.055*[#   3]+0.055*[#   4]
          +0.055*[#   6]+0.055*[#   7]+0.055*[#   8]
    |psi|^2 = 0.567
==== e(  10) =    14.50688 eV ==== 
     psi = 0.007*[#   2]+0.007*[#   3]+0.007*[#   4]+0.007*[#   6]+0.007*[#   7]
          +0.007*[#   8]
    |psi|^2 = 0.039
==== e(  11) =    16.07901 eV ==== 
     psi = 0.004*[#   1]+0.004*[#   5]+0.001*[#   2]+0.001*[#   3]+0.001*[#   4]
          +0.001*[#   6]+0.001*[#   7]+0.001*[#   8]
    |psi|^2 = 0.017
==== e(  12) =    18.38962 eV ==== 
     psi = 0.008*[#   1]+0.008*[#   5]+0.001*[#   2]+0.001*[#   3]+0.001*[#   4]
          +0.001*[#   6]+0.001*[#   7]+0.001*[#   8]
    |psi|^2 = 0.025
==== e(  13) =    20.36910 eV ==== 
     psi = 0.005*[#   2]+0.005*[#   3]+0.005*[#   4]+0.005*[#   6]+0.005*[#   7]
          +0.005*[#   8]
    |psi|^2 = 0.029
==== e(  14) =    21.59969 eV ==== 
     psi = 0.003*[#   2]+0.003*[#   3]+0.003*[#   4]+0.003*[#   6]+0.003*[#   7]
          +0.003*[#   8]
    |psi|^2 = 0.018
==== e(  15) =    23.81580 eV ==== 
     psi = 0.006*[#   2]+0.006*[#   3]+0.006*[#   4]+0.006*[#   6]+0.006*[#   7]
          +0.006*[#   8]
    |psi|^2 = 0.034
==== e(  16) =    24.43149 eV ==== 
     psi = 0.010*[#   2]+0.010*[#   3]+0.010*[#   4]+0.010*[#   6]+0.010*[#   7]
          +0.010*[#   8]+0.005*[#   1]+0.005*[#   5]
    |psi|^2 = 0.068

 k =   0.1718750000  0.1718750000  0.3437500000
==== e(   1) =    -4.88076 eV ==== 
     psi = 0.381*[#   1]+0.381*[#   5]+0.039*[#   2]+0.039*[#   3]+0.039*[#   4]
          +0.039*[#   6]+0.039*[#   7]+0.039*[#   8]
    |psi|^2 = 0.996
==== e(   2) =     2.85829 eV ==== 
     psi = 0.140*[#   1]+0.140*[#   5]+0.118*[#   2]+0.118*[#   3]+0.118*[#   4]
          +0.118*[#   6]+0.118*[#   7]+0.118*[#   8]
    |psi|^2 = 0.986
==== e(   3) =     5.27568 eV ==== 
     psi = 0.164*[#   2]+0.164*[#   3]+0.164*[#   4]+0.164*[#   6]+0.164*[#   7]
          +0.164*[#   8]
    |psi|^2 = 0.983
==== e(   4) =     5.45713 eV ==== 
     psi = 0.149*[#   2]+0.149*[#   3]+0.149*[#   4]+0.149*[#   6]+0.149*[#   7]
          +0.149*[#   8]+0.042*[#   1]+0.042*[#   5]
    |psi|^2 = 0.981
==== e(   5) =     8.90682 eV ==== 
     psi = 0.129*[#   1]+0.129*[#   5]+0.111*[#   2]+0.111*[#   3]+0.111*[#   4]
          +0.111*[#   6]+0.111*[#   7]+0.111*[#   8]
    |psi|^2 = 0.924
==== e(   6) =     9.72871 eV ==== 
     psi = 0.127*[#   2]+0.127*[#   3]+0.127*[#   4]+0.127*[#   6]+0.127*[#   7]
          +0.127*[#   8]+0.088*[#   1]+0.088*[#   5]
    |psi|^2 = 0.937
==== e(   7) =    10.58522 eV ==== 
     psi = 0.147*[#   2]+0.147*[#   3]+0.147*[#   4]+0.147*[#   6]+0.147*[#   7]
          +0.147*[#   8]
    |psi|^2 = 0.880
==== e(   8) =    11.87310 eV ==== 
     psi = 0.076*[#   1]+0.076*[#   5]+0.040*[#   2]+0.040*[#   3]+0.040*[#   4]
          +0.040*[#   6]+0.040*[#   7]+0.040*[#   8]
    |psi|^2 = 0.390
==== e(   9) =    14.11201 eV ==== 
     psi = 0.120*[#   1]+0.120*[#   5]+0.052*[#   2]+0.052*[#   3]+0.052*[#   4]
          +0.052*[#   6]+0.052*[#   7]+0.052*[#   8]
    |psi|^2 = 0.552
==== e(  10) =    14.41258 eV ==== 
     psi = 0.006*[#   2]+0.006*[#   3]+0.006*[#   4]+0.006*[#   6]+0.006*[#   7]
          +0.006*[#   8]
    |psi|^2 = 0.033
==== e(  11) =    16.07527 eV ==== 
     psi = 0.004*[#   1]+0.004*[#   5]+0.002*[#   2]+0.002*[#   3]+0.002*[#   4]
          +0.002*[#   6]+0.002*[#   7]+0.002*[#   8]
    |psi|^2 = 0.017
==== e(  12) =    18.18881 eV ==== 
     psi = 0.008*[#   1]+0.008*[#   5]
    |psi|^2 = 0.021
==== e(  13) =    20.21874 eV ==== 
     psi = 0.004*[#   2]+0.004*[#   3]+0.004*[#   4]+0.004*[#   6]+0.004*[#   7]
          +0.004*[#   8]
    |psi|^2 = 0.026
==== e(  14) =    21.39293 eV ==== 
     psi = 0.003*[#   2]+0.003*[#   3]+0.003*[#   4]+0.003*[#   6]+0.003*[#   7]
          +0.003*[#   8]
    |psi|^2 = 0.016
==== e(  15) =    24.09763 eV ==== 
     psi = 0.006*[#   2]+0.006*[#   3]+0.006*[#   4]+0.006*[#   6]+0.006*[#   7]
          +0.006*[#   8]
    |psi|^2 = 0.035
==== e(  16) =    24.64627 eV ==== 
     psi = 0.010*[#   2]+0.010*[#   3]+0.010*[#   4]+0.010*[#   6]+0.010*[#   7]
          +0.010*[#   8]+0.005*[#   1]+0.005*[#   5]
    |psi|^2 = 0.068

 k =   0.1640625000  0.1640625000  0.3281250000
==== e(   1) =    -4.94802 eV ==== 
     psi = 0.386*[#   1]+0.386*[#   5]+0.037*[#   2]+0.037*[#   3]+0.037*[#   4]
          +0.037*[#   6]+0.037*[#   7]+0.037*[#   8]
    |psi|^2 = 0.996
==== e(   2) =     3.04900 eV ==== 
[...]
    |psi|^2 = 0.718
==== e(   8) =    12.73799 eV ==== 
     psi = 0.070*[#   1]+0.070*[#   5]+0.040*[#   2]+0.040*[#   3]+0.040*[#   4]
          +0.040*[#   6]+0.040*[#   7]+0.040*[#   8]
    |psi|^2 = 0.379
==== e(   9) =    13.85132 eV ==== 
     psi = 0.053*[#   1]+0.053*[#   5]+0.033*[#   2]+0.033*[#   3]+0.033*[#   4]
          +0.033*[#   6]+0.033*[#   7]+0.033*[#   8]
    |psi|^2 = 0.303
==== e(  10) =    15.51556 eV ==== 
     psi = 0.047*[#   1]+0.047*[#   5]+0.043*[#   2]+0.043*[#   3]+0.043*[#   4]
          +0.043*[#   6]+0.043*[#   7]+0.043*[#   8]
    |psi|^2 = 0.352
==== e(  11) =    18.99320 eV ==== 
     psi = 0.008*[#   1]+0.008*[#   5]+0.004*[#   2]+0.004*[#   3]+0.004*[#   4]
          +0.004*[#   6]+0.004*[#   7]+0.004*[#   8]
    |psi|^2 = 0.037
==== e(  12) =    20.59852 eV ==== 
     psi = 0.038*[#   2]+0.038*[#   3]+0.038*[#   4]+0.038*[#   6]+0.038*[#   7]
          +0.038*[#   8]+0.022*[#   1]+0.022*[#   5]
    |psi|^2 = 0.272
==== e(  13) =    20.87585 eV ==== 
     psi = 0.001*[#   1]+0.001*[#   5]+0.001*[#   2]+0.001*[#   3]+0.001*[#   4]
          +0.001*[#   6]+0.001*[#   7]+0.001*[#   8]
    |psi|^2 = 0.010
==== e(  14) =    22.69925 eV ==== 
     psi = 0.010*[#   2]+0.010*[#   3]+0.010*[#   4]+0.010*[#   6]+0.010*[#   7]
          +0.010*[#   8]+0.002*[#   1]+0.002*[#   5]
    |psi|^2 = 0.065
==== e(  15) =    23.73193 eV ==== 
     psi = 0.011*[#   2]+0.011*[#   3]+0.011*[#   4]+0.011*[#   6]+0.011*[#   7]
          +0.011*[#   8]+0.002*[#   1]+0.002*[#   5]
    |psi|^2 = 0.072
==== e(  16) =    24.41774 eV ==== 
     psi = 0.006*[#   2]+0.006*[#   3]+0.006*[#   4]+0.006*[#   6]+0.006*[#   7]
          +0.006*[#   8]+0.002*[#   1]+0.002*[#   5]
    |psi|^2 = 0.038

 k =   0.5000000000  0.0568181818  0.5568181818
==== e(   1) =    -3.34580 eV ==== 
     psi = 0.332*[#   1]+0.332*[#   5]+0.055*[#   2]+0.055*[#   3]+0.055*[#   4]
          +0.055*[#   6]+0.055*[#   7]+0.055*[#   8]
    |psi|^2 = 0.995
==== e(   2) =     0.58158 eV ==== 
     psi = 0.204*[#   1]+0.204*[#   5]+0.097*[#   2]+0.097*[#   3]+0.097*[#   4]
          +0.097*[#   6]+0.097*[#   7]+0.097*[#   8]
    |psi|^2 = 0.992
==== e(   3) =     2.53960 eV ==== 
     psi = 0.151*[#   2]+0.151*[#   3]+0.151*[#   4]+0.151*[#   6]+0.151*[#   7]
          +0.151*[#   8]+0.041*[#   1]+0.041*[#   5]
    |psi|^2 = 0.992
==== e(   4) =     4.90619 eV ==== 
     psi = 0.164*[#   2]+0.164*[#   3]+0.164*[#   4]+0.164*[#   6]+0.164*[#   7]
          +0.164*[#   8]+0.001*[#   1]+0.001*[#   5]
    |psi|^2 = 0.989
==== e(   5) =     8.82488 eV ==== 
     psi = 0.105*[#   2]+0.105*[#   3]+0.105*[#   4]+0.105*[#   6]+0.105*[#   7]
          +0.105*[#   8]+0.100*[#   1]+0.100*[#   5]
    |psi|^2 = 0.829
==== e(   6) =    11.14680 eV ==== 
     psi = 0.119*[#   2]+0.119*[#   3]+0.119*[#   4]+0.119*[#   6]+0.119*[#   7]
          +0.119*[#   8]+0.037*[#   1]+0.037*[#   5]
    |psi|^2 = 0.785
==== e(   7) =    11.93953 eV ==== 
     psi = 0.099*[#   2]+0.099*[#   3]+0.099*[#   4]+0.099*[#   6]+0.099*[#   7]
          +0.099*[#   8]+0.058*[#   1]+0.058*[#   5]
    |psi|^2 = 0.707
==== e(   8) =    12.71218 eV ==== 
     psi = 0.076*[#   1]+0.076*[#   5]+0.041*[#   2]+0.041*[#   3]+0.041*[#   4]
          +0.041*[#   6]+0.041*[#   7]+0.041*[#   8]
    |psi|^2 = 0.397
==== e(   9) =    13.64654 eV ==== 
     psi = 0.054*[#   1]+0.054*[#   5]+0.031*[#   2]+0.031*[#   3]+0.031*[#   4]
          +0.031*[#   6]+0.031*[#   7]+0.031*[#   8]
    |psi|^2 = 0.295
==== e(  10) =    15.63271 eV ==== 
     psi = 0.046*[#   1]+0.046*[#   5]+0.041*[#   2]+0.041*[#   3]+0.041*[#   4]
          +0.041*[#   6]+0.041*[#   7]+0.041*[#   8]
    |psi|^2 = 0.340
==== e(  11) =    19.06536 eV ==== 
     psi = 0.008*[#   1]+0.008*[#   5]+0.004*[#   2]+0.004*[#   3]+0.004*[#   4]
          +0.004*[#   6]+0.004*[#   7]+0.004*[#   8]
    |psi|^2 = 0.037
==== e(  12) =    20.47843 eV ==== 
     psi = 0.038*[#   2]+0.038*[#   3]+0.038*[#   4]+0.038*[#   6]+0.038*[#   7]
          +0.038*[#   8]+0.023*[#   1]+0.023*[#   5]
    |psi|^2 = 0.275
==== e(  13) =    20.68417 eV ==== 
 
    |psi|^2 = 0.005
==== e(  14) =    22.93010 eV ==== 
     psi = 0.010*[#   2]+0.010*[#   3]+0.010*[#   4]+0.010*[#   6]+0.010*[#   7]
          +0.010*[#   8]+0.002*[#   1]+0.002*[#   5]
    |psi|^2 = 0.061
==== e(  15) =    23.73992 eV ==== 
     psi = 0.008*[#   2]+0.008*[#   3]+0.008*[#   4]+0.008*[#   6]+0.008*[#   7]
          +0.008*[#   8]+0.002*[#   1]+0.002*[#   5]
    |psi|^2 = 0.053
==== e(  16) =    24.30572 eV ==== 
     psi = 0.008*[#   2]+0.008*[#   3]+0.008*[#   4]+0.008*[#   6]+0.008*[#   7]
          +0.008*[#   8]+0.002*[#   1]+0.002*[#   5]
    |psi|^2 = 0.054

 k =   0.5000000000  0.0454545455  0.5454545455
==== e(   1) =    -3.39365 eV ==== 
     psi = 0.332*[#   1]+0.332*[#   5]+0.055*[#   2]+0.055*[#   3]+0.055*[#   4]
          +0.055*[#   6]+0.055*[#   7]+0.055*[#   8]
    |psi|^2 = 0.995
==== e(   2) =     0.65985 eV ==== 
     psi = 0.205*[#   1]+0.205*[#   5]+0.097*[#   2]+0.097*[#   3]+0.097*[#   4]
          +0.097*[#   6]+0.097*[#   7]+0.097*[#   8]
    |psi|^2 = 0.992
==== e(   3) =     2.53612 eV ==== 
     psi = 0.152*[#   2]+0.152*[#   3]+0.152*[#   4]+0.152*[#   6]+0.152*[#   7]
          +0.152*[#   8]+0.040*[#   1]+0.040*[#   5]
    |psi|^2 = 0.991
==== e(   4) =     4.94925 eV ==== 
     psi = 0.165*[#   2]+0.165*[#   3]+0.165*[#   4]+0.165*[#   6]+0.165*[#   7]
          +0.165*[#   8]
    |psi|^2 = 0.989
==== e(   5) =     8.82939 eV ==== 
     psi = 0.105*[#   2]+0.105*[#   3]+0.105*[#   4]+0.105*[#   6]+0.105*[#   7]
          +0.105*[#   8]+0.100*[#   1]+0.100*[#   5]
    |psi|^2 = 0.831
==== e(   6) =    11.21478 eV ==== 
     psi = 0.125*[#   2]+0.125*[#   3]+0.125*[#   4]+0.125*[#   6]+0.125*[#   7]
          +0.125*[#   8]+0.029*[#   1]+0.029*[#   5]
    |psi|^2 = 0.808
==== e(   7) =    11.88529 eV ==== 
     psi = 0.095*[#   2]+0.095*[#   3]+0.095*[#   4]+0.095*[#   6]+0.095*[#   7]
          +0.095*[#   8]+0.060*[#   1]+0.060*[#   5]
    |psi|^2 = 0.692
==== e(   8) =    12.69524 eV ==== 
     psi = 0.084*[#   1]+0.084*[#   5]+0.042*[#   2]+0.042*[#   3]+0.042*[#   4]
          +0.042*[#   6]+0.042*[#   7]+0.042*[#   8]
    |psi|^2 = 0.422
==== e(   9) =    13.45412 eV ==== 
     psi = 0.053*[#   1]+0.053*[#   5]+0.028*[#   2]+0.028*[#   3]+0.028*[#   4]
          +0.028*[#   6]+0.028*[#   7]+0.028*[#   8]
    |psi|^2 = 0.276
==== e(  10) =    15.74987 eV ==== 
     psi = 0.044*[#   1]+0.044*[#   5]+0.040*[#   2]+0.040*[#   3]+0.040*[#   4]
          +0.040*[#   6]+0.040*[#   7]+0.040*[#   8]
    |psi|^2 = 0.327
==== e(  11) =    19.13399 eV ==== 
     psi = 0.009*[#   1]+0.009*[#   5]+0.004*[#   2]+0.004*[#   3]+0.004*[#   4]
          +0.004*[#   6]+0.004*[#   7]+0.004*[#   8]
    |psi|^2 = 0.039
==== e(  12) =    20.35574 eV ==== 
     psi = 0.038*[#   2]+0.038*[#   3]+0.038*[#   4]+0.038*[#   6]+0.038*[#   7]
          +0.038*[#   8]+0.024*[#   1]+0.024*[#   5]
    |psi|^2 = 0.274
==== e(  13) =    20.50291 eV ==== 
 
    |psi|^2 = 0.005
==== e(  14) =    23.15123 eV ==== 
     psi = 0.009*[#   2]+0.009*[#   3]+0.009*[#   4]+0.009*[#   6]+0.009*[#   7]
          +0.009*[#   8]+0.001*[#   1]+0.001*[#   5]
    |psi|^2 = 0.055
==== e(  15) =    23.71285 eV ==== 
     psi = 0.005*[#   2]+0.005*[#   3]+0.005*[#   4]+0.005*[#   6]+0.005*[#   7]
          +0.005*[#   8]+0.002*[#   1]+0.002*[#   5]
    |psi|^2 = 0.032
==== e(  16) =    24.22494 eV ==== 
     psi = 0.012*[#   2]+0.012*[#   3]+0.012*[#   4]+0.012*[#   6]+0.012*[#   7]
          +0.012*[#   8]+0.002*[#   1]+0.002*[#   5]
    |psi|^2 = 0.074

 k =   0.5000000000  0.0340909091  0.5340909091
==== e(   1) =    -3.44058 eV ==== 
     psi = 0.332*[#   1]+0.332*[#   5]+0.055*[#   2]+0.055*[#   3]+0.055*[#   4]
          +0.055*[#   6]+0.055*[#   7]+0.055*[#   8]
    |psi|^2 = 0.995
==== e(   2) =     0.73410 eV ==== 
     psi = 0.206*[#   1]+0.206*[#   5]+0.097*[#   2]+0.097*[#   3]+0.097*[#   4]
          +0.097*[#   6]+0.097*[#   7]+0.097*[#   8]
    |psi|^2 = 0.992
==== e(   3) =     2.54030 eV ==== 
     psi = 0.152*[#   2]+0.152*[#   3]+0.152*[#   4]+0.152*[#   6]+0.152*[#   7]
          +0.152*[#   8]+0.039*[#   1]+0.039*[#   5]
    |psi|^2 = 0.991
==== e(   4) =     4.98955 eV ==== 
     psi = 0.165*[#   2]+0.165*[#   3]+0.165*[#   4]+0.165*[#   6]+0.165*[#   7]
          +0.165*[#   8]
    |psi|^2 = 0.988
==== e(   5) =     8.83973 eV ==== 
     psi = 0.105*[#   2]+0.105*[#   3]+0.105*[#   4]+0.105*[#   6]+0.105*[#   7]
          +0.105*[#   8]+0.100*[#   1]+0.100*[#   5]
    |psi|^2 = 0.832
==== e(   6) =    11.26685 eV ==== 
     psi = 0.133*[#   2]+0.133*[#   3]+0.133*[#   4]+0.133*[#   6]+0.133*[#   7]
          +0.133*[#   8]+0.020*[#   1]+0.020*[#   5]
    |psi|^2 = 0.836
==== e(   7) =    11.82751 eV ==== 
     psi = 0.091*[#   2]+0.091*[#   3]+0.091*[#   4]+0.091*[#   6]+0.091*[#   7]
          +0.091*[#   8]+0.064*[#   1]+0.064*[#   5]
    |psi|^2 = 0.673
==== e(   8) =    12.68878 eV ==== 
     psi = 0.095*[#   1]+0.095*[#   5]+0.045*[#   2]+0.045*[#   3]+0.045*[#   4]
          +0.045*[#   6]+0.045*[#   7]+0.045*[#   8]
    |psi|^2 = 0.460
==== e(   9) =    13.27616 eV ==== 
     psi = 0.049*[#   1]+0.049*[#   5]+0.024*[#   2]+0.024*[#   3]+0.024*[#   4]
          +0.024*[#   6]+0.024*[#   7]+0.024*[#   8]
    |psi|^2 = 0.243
==== e(  10) =    15.86655 eV ==== 
     psi = 0.042*[#   1]+0.042*[#   5]+0.039*[#   2]+0.039*[#   3]+0.039*[#   4]
          +0.039*[#   6]+0.039*[#   7]+0.039*[#   8]
    |psi|^2 = 0.316
==== e(  11) =    19.19266 eV ==== 
     psi = 0.010*[#   1]+0.010*[#   5]+0.004*[#   2]+0.004*[#   3]+0.004*[#   4]
          +0.004*[#   6]+0.004*[#   7]+0.004*[#   8]
    |psi|^2 = 0.043
==== e(  12) =    20.22908 eV ==== 
     psi = 0.036*[#   2]+0.036*[#   3]+0.036*[#   4]+0.036*[#   6]+0.036*[#   7]
          +0.036*[#   8]+0.024*[#   1]+0.024*[#   5]
    |psi|^2 = 0.266
==== e(  13) =    20.33666 eV ==== 
     psi = 0.002*[#   2]+0.002*[#   3]+0.002*[#   4]+0.002*[#   6]+0.002*[#   7]
          +0.002*[#   8]
    |psi|^2 = 0.011
==== e(  14) =    23.34927 eV ==== 
     psi = 0.007*[#   2]+0.007*[#   3]+0.007*[#   4]+0.007*[#   6]+0.007*[#   7]
          +0.007*[#   8]+0.001*[#   1]+0.001*[#   5]
    |psi|^2 = 0.047
==== e(  15) =    23.65129 eV ==== 
     psi = 0.002*[#   2]+0.002*[#   3]+0.002*[#   4]+0.002*[#   6]+0.002*[#   7]
          +0.002*[#   8]+0.001*[#   1]+0.001*[#   5]
    |psi|^2 = 0.014
==== e(  16) =    24.17633 eV ==== 
     psi = 0.015*[#   2]+0.015*[#   3]+0.015*[#   4]+0.015*[#   6]+0.015*[#   7]
          +0.015*[#   8]+0.002*[#   1]+0.002*[#   5]
    |psi|^2 = 0.093

 k =   0.5000000000  0.0227272727  0.5227272727
==== e(   1) =    -3.48647 eV ==== 
     psi = 0.332*[#   1]+0.332*[#   5]+0.055*[#   2]+0.055*[#   3]+0.055*[#   4]
          +0.055*[#   6]+0.055*[#   7]+0.055*[#   8]
    |psi|^2 = 0.995
==== e(   2) =     0.80339 eV ==== 
     psi = 0.207*[#   1]+0.207*[#   5]+0.096*[#   2]+0.096*[#   3]+0.096*[#   4]
          +0.096*[#   6]+0.096*[#   7]+0.096*[#   8]
    |psi|^2 = 0.992
==== e(   3) =     2.55310 eV ==== 
     psi = 0.153*[#   2]+0.153*[#   3]+0.153*[#   4]+0.153*[#   6]+0.153*[#   7]
          +0.153*[#   8]+0.038*[#   1]+0.038*[#   5]
    |psi|^2 = 0.991
==== e(   4) =     5.02685 eV ==== 
     psi = 0.165*[#   2]+0.165*[#   3]+0.165*[#   4]+0.165*[#   6]+0.165*[#   7]
          +0.165*[#   8]
    |psi|^2 = 0.988
==== e(   5) =     8.85615 eV ==== 
     psi = 0.105*[#   2]+0.105*[#   3]+0.105*[#   4]+0.105*[#   6]+0.105*[#   7]
          +0.105*[#   8]+0.100*[#   1]+0.100*[#   5]
    |psi|^2 = 0.833
==== e(   6) =    11.29740 eV ==== 
     psi = 0.141*[#   2]+0.141*[#   3]+0.141*[#   4]+0.141*[#   6]+0.141*[#   7]
          +0.141*[#   8]+0.011*[#   1]+0.011*[#   5]
    |psi|^2 = 0.867
==== e(   7) =    11.76736 eV ==== 
     psi = 0.086*[#   2]+0.086*[#   3]+0.086*[#   4]+0.086*[#   6]+0.086*[#   7]
          +0.086*[#   8]+0.069*[#   1]+0.069*[#   5]
    |psi|^2 = 0.653
==== e(   8) =    12.69285 eV ==== 
     psi = 0.111*[#   1]+0.111*[#   5]+0.050*[#   2]+0.050*[#   3]+0.050*[#   4]
          +0.050*[#   6]+0.050*[#   7]+0.050*[#   8]
    |psi|^2 = 0.521
==== e(   9) =    13.11827 eV ==== 
     psi = 0.038*[#   1]+0.038*[#   5]+0.018*[#   2]+0.018*[#   3]+0.018*[#   4]
          +0.018*[#   6]+0.018*[#   7]+0.018*[#   8]
    |psi|^2 = 0.184
==== e(  10) =    15.98204 eV ==== 
     psi = 0.040*[#   1]+0.040*[#   5]+0.037*[#   2]+0.037*[#   3]+0.037*[#   4]
          +0.037*[#   6]+0.037*[#   7]+0.037*[#   8]
    |psi|^2 = 0.304
==== e(  11) =    19.23308 eV ==== 
     psi = 0.011*[#   1]+0.011*[#   5]+0.004*[#   2]+0.004*[#   3]+0.004*[#   4]
          +0.004*[#   6]+0.004*[#   7]+0.004*[#   8]
    |psi|^2 = 0.048
==== e(  12) =    20.10340 eV ==== 
     psi = 0.035*[#   2]+0.035*[#   3]+0.035*[#   4]+0.035*[#   6]+0.035*[#   7]
          +0.035*[#   8]+0.023*[#   1]+0.023*[#   5]
    |psi|^2 = 0.258
==== e(  13) =    20.19237 eV ==== 
     psi = 0.003*[#   2]+0.003*[#   3]+0.003*[#   4]+0.003*[#   6]+0.003*[#   7]
          +0.003*[#   8]
    |psi|^2 = 0.017
==== e(  14) =    23.47686 eV ==== 
     psi = 0.004*[#   2]+0.004*[#   3]+0.004*[#   4]+0.004*[#   6]+0.004*[#   7]
          +0.004*[#   8]+0.001*[#   1]+0.001*[#   5]
    |psi|^2 = 0.027
==== e(  15) =    23.60559 eV ==== 
     psi = 0.002*[#   2]+0.002*[#   3]+0.002*[#   4]+0.002*[#   6]+0.002*[#   7]
          +0.002*[#   8]
    |psi|^2 = 0.013
==== e(  16) =    24.15292 eV ==== 
     psi = 0.018*[#   2]+0.018*[#   3]+0.018*[#   4]+0.018*[#   6]+0.018*[#   7]
          +0.018*[#   8]+0.001*[#   1]+0.001*[#   5]
    |psi|^2 = 0.108

 k =   0.5000000000  0.0113636364  0.5113636364
==== e(   1) =    -3.53118 eV ==== 
     psi = 0.333*[#   1]+0.333*[#   5]+0.055*[#   2]+0.055*[#   3]+0.055*[#   4]
          +0.055*[#   6]+0.055*[#   7]+0.055*[#   8]
    |psi|^2 = 0.995
==== e(   2) =     0.86671 eV ==== 
     psi = 0.207*[#   1]+0.207*[#   5]+0.096*[#   2]+0.096*[#   3]+0.096*[#   4]
          +0.096*[#   6]+0.096*[#   7]+0.096*[#   8]
    |psi|^2 = 0.992
==== e(   3) =     2.57540 eV ==== 
     psi = 0.153*[#   2]+0.153*[#   3]+0.153*[#   4]+0.153*[#   6]+0.153*[#   7]
          +0.153*[#   8]+0.038*[#   1]+0.038*[#   5]
    |psi|^2 = 0.991
==== e(   4) =     5.06095 eV ==== 
     psi = 0.165*[#   2]+0.165*[#   3]+0.165*[#   4]+0.165*[#   6]+0.165*[#   7]
          +0.165*[#   8]
    |psi|^2 = 0.988
==== e(   5) =     8.87854 eV ==== 
     psi = 0.106*[#   2]+0.106*[#   3]+0.106*[#   4]+0.106*[#   6]+0.106*[#   7]
          +0.106*[#   8]+0.100*[#   1]+0.100*[#   5]
    |psi|^2 = 0.835
==== e(   6) =    11.29989 eV ==== 
     psi = 0.148*[#   2]+0.148*[#   3]+0.148*[#   4]+0.148*[#   6]+0.148*[#   7]
          +0.148*[#   8]+0.003*[#   1]+0.003*[#   5]
    |psi|^2 = 0.894
==== e(   7) =    11.70742 eV ==== 
     psi = 0.081*[#   2]+0.081*[#   3]+0.081*[#   4]+0.081*[#   6]+0.081*[#   7]
          +0.081*[#   8]+0.074*[#   1]+0.074*[#   5]
    |psi|^2 = 0.638
==== e(   8) =    12.70165 eV ==== 
     psi = 0.135*[#   1]+0.135*[#   5]+0.058*[#   2]+0.058*[#   3]+0.058*[#   4]
          +0.058*[#   6]+0.058*[#   7]+0.058*[#   8]
    |psi|^2 = 0.620
==== e(   9) =    12.99056 eV ==== 
     psi = 0.018*[#   1]+0.018*[#   5]+0.008*[#   2]+0.008*[#   3]+0.008*[#   4]
          +0.008*[#   6]+0.008*[#   7]+0.008*[#   8]
    |psi|^2 = 0.084
==== e(  10) =    16.09552 eV ==== 
     psi = 0.039*[#   1]+0.039*[#   5]+0.036*[#   2]+0.036*[#   3]+0.036*[#   4]
          +0.036*[#   6]+0.036*[#   7]+0.036*[#   8]
    |psi|^2 = 0.292
==== e(  11) =    19.24226 eV ==== 
     psi = 0.013*[#   1]+0.013*[#   5]+0.005*[#   2]+0.005*[#   3]+0.005*[#   4]
          +0.005*[#   6]+0.005*[#   7]+0.005*[#   8]
    |psi|^2 = 0.055
==== e(  12) =    19.97931 eV ==== 
     psi = 0.036*[#   2]+0.036*[#   3]+0.036*[#   4]+0.036*[#   6]+0.036*[#   7]
          +0.036*[#   8]+0.023*[#   1]+0.023*[#   5]
    |psi|^2 = 0.259
==== e(  13) =    20.08337 eV ==== 
     psi = 0.002*[#   2]+0.002*[#   3]+0.002*[#   4]+0.002*[#   6]+0.002*[#   7]
          +0.002*[#   8]
    |psi|^2 = 0.011
==== e(  14) =    23.41333 eV ==== 
     psi = 0.001*[#   1]+0.001*[#   5]
    |psi|^2 = 0.007
==== e(  15) =    23.69439 eV ==== 
     psi = 0.003*[#   2]+0.003*[#   3]+0.003*[#   4]+0.003*[#   6]+0.003*[#   7]
          +0.003*[#   8]
    |psi|^2 = 0.016
==== e(  16) =    24.15200 eV ==== 
     psi = 0.020*[#   2]+0.020*[#   3]+0.020*[#   4]+0.020*[#   6]+0.020*[#   7]
          +0.020*[#   8]+0.001*[#   1]+0.001*[#   5]
    |psi|^2 = 0.122

 k =   0.5000000000  0.0000000000  0.5000000000
==== e(   1) =    -3.57458 eV ==== 
     psi = 0.333*[#   1]+0.333*[#   5]+0.055*[#   2]+0.055*[#   3]+0.055*[#   4]
          +0.055*[#   6]+0.055*[#   7]+0.055*[#   8]
    |psi|^2 = 0.995
==== e(   2) =     0.92325 eV ==== 
     psi = 0.206*[#   1]+0.206*[#   5]+0.097*[#   2]+0.097*[#   3]+0.097*[#   4]
          +0.097*[#   6]+0.097*[#   7]+0.097*[#   8]
    |psi|^2 = 0.992
==== e(   3) =     2.60787 eV ==== 
     psi = 0.152*[#   2]+0.152*[#   3]+0.152*[#   4]+0.152*[#   6]+0.152*[#   7]
          +0.152*[#   8]+0.038*[#   1]+0.038*[#   5]
    |psi|^2 = 0.991
==== e(   4) =     5.09202 eV ==== 
     psi = 0.165*[#   2]+0.165*[#   3]+0.165*[#   4]+0.165*[#   6]+0.165*[#   7]
          +0.165*[#   8]
    |psi|^2 = 0.988
==== e(   5) =     8.90678 eV ==== 
     psi = 0.106*[#   2]+0.106*[#   3]+0.106*[#   4]+0.106*[#   6]+0.106*[#   7]
          +0.106*[#   8]+0.101*[#   1]+0.101*[#   5]
    |psi|^2 = 0.836
==== e(   6) =    11.26824 eV ==== 
     psi = 0.151*[#   2]+0.151*[#   3]+0.151*[#   4]+0.151*[#   6]+0.151*[#   7]
          +0.151*[#   8]
    |psi|^2 = 0.907
==== e(   7) =    11.65228 eV ==== 
     psi = 0.081*[#   2]+0.081*[#   3]+0.081*[#   4]+0.081*[#   6]+0.081*[#   7]
          +0.081*[#   8]+0.077*[#   1]+0.077*[#   5]
    |psi|^2 = 0.639
==== e(   8) =    12.69083 eV ==== 
     psi = 0.154*[#   1]+0.154*[#   5]+0.065*[#   2]+0.065*[#   3]+0.065*[#   4]
          +0.065*[#   6]+0.065*[#   7]+0.065*[#   8]
    |psi|^2 = 0.701
==== e(   9) =    12.92000 eV ==== 
 
    |psi|^2 = 0.000
==== e(  10) =    16.20636 eV ==== 
     psi = 0.037*[#   1]+0.037*[#   5]+0.034*[#   2]+0.034*[#   3]+0.034*[#   4]
          +0.034*[#   6]+0.034*[#   7]+0.034*[#   8]
    |psi|^2 = 0.280
==== e(  11) =    19.20914 eV ==== 
     psi = 0.014*[#   1]+0.014*[#   5]+0.006*[#   2]+0.006*[#   3]+0.006*[#   4]
          +0.006*[#   6]+0.006*[#   7]+0.006*[#   8]
    |psi|^2 = 0.062
==== e(  12) =    19.84842 eV ==== 
     psi = 0.035*[#   2]+0.035*[#   3]+0.035*[#   4]+0.035*[#   6]+0.035*[#   7]
          +0.035*[#   8]+0.022*[#   1]+0.022*[#   5]
    |psi|^2 = 0.255
==== e(  13) =    20.03060 eV ==== 
     psi = 0.002*[#   2]+0.002*[#   3]+0.002*[#   4]+0.002*[#   6]+0.002*[#   7]
          +0.002*[#   8]
    |psi|^2 = 0.011
==== e(  14) =    23.30395 eV ==== 
     psi = 0.001*[#   1]+0.001*[#   5]
    |psi|^2 = 0.004
==== e(  15) =    23.76888 eV ==== 
     psi = 0.002*[#   2]+0.002*[#   3]+0.002*[#   4]+0.002*[#   6]+0.002*[#   7]
          +0.002*[#   8]
    |psi|^2 = 0.010
==== e(  16) =    24.18523 eV ==== 
     psi = 0.021*[#   2]+0.021*[#   3]+0.021*[#   4]+0.021*[#   6]+0.021*[#   7]
          +0.021*[#   8]+0.001*[#   1]+0.001*[#   5]
    |psi|^2 = 0.128

Lowdin Charges: 

     Atom #   1: total charge =   3.9472, s =  1.0960, 
     Atom #   1: total charge =   3.9472, p =  2.8513, pz=  0.9504, px=  0.9504, py=  0.9504, 
     Atom #   2: total charge =   3.9472, s =  1.0960, 
     Atom #   2: total charge =   3.9472, p =  2.8513, pz=  0.9504, px=  0.9504, py=  0.9504, 
     Spilling Parameter:   0.0132
 
     PROJWFC      :      0.85s CPU      1.35s WALL

 
   This run was terminated on:  13:17:29  14Jun2021            

=------------------------------------------------------------------------------=
   JOB DONE.
=------------------------------------------------------------------------------=
