<?xml version="1.0" encoding="ISO-8859-1"?>
<modeling>
 <generator>
  <i name="program" type="string">vasp </i>
  <i name="version" type="string">5.4.4.18Apr17-6-g9f103f2a35  </i>
  <i name="subversion" type="string">(build Apr 24 2017 21:27:10) complex            parallel </i>
  <i name="platform" type="string">LinuxIFC </i>
  <i name="date" type="string">2019 02 23 </i>
  <i name="time" type="string">18:32:20 </i>
 </generator>
 <incar>
  <i type="string" name="SYSTEM"> Ni fcc bulk</i>
  <i type="int" name="ISTART">     0</i>
  <i type="string" name="PREC">normal</i>
  <i type="int" name="ISPIN">     1</i>
  <i type="int" name="ISYM">     2</i>
  <i type="int" name="NEDOS">    50</i>
  <i type="int" name="ISMEAR">     0</i>
  <i name="SIGMA">      0.10000000</i>
  <i type="logical" name="LOPTICS"> T  </i>
  <i type="logical" name="LSCALAPACK"> F  </i>
  <v type="int" name="KPOINT_BSE">    -1     0     0     0</v>
 </incar>
 <structure name="primitive_cell" >
  <crystal>
   <varray name="basis" >
    <v>       1.76142189       1.76142189       0.00000000 </v>
    <v>       0.00000000       1.76142189       1.76142189 </v>
    <v>       1.76142189       0.00000000       1.76142189 </v>
   </varray>
   <i name="volume">     10.93000000 </i>
   <varray name="rec_basis" >
    <v>       0.28386158       0.28386158      -0.28386158 </v>
    <v>      -0.28386158       0.28386158       0.28386158 </v>
    <v>       0.28386158      -0.28386158       0.28386158 </v>
   </varray>
  </crystal>
  <varray name="positions" >
   <v>       0.00000000       0.00000000       0.00000000 </v>
  </varray>
 </structure>
 <varray name="primitive_index" >
  <v type="int" >        1 </v>
 </varray>
 <kpoints>
  <varray name="kpointlist" >
   <v>       0.00000000       0.00000000       0.00000000 </v>
   <v>       0.25000000       0.00000000       0.00000000 </v>
   <v>       0.50000000       0.00000000       0.00000000 </v>
   <v>       0.25000000       0.25000000       0.00000000 </v>
   <v>       0.50000000       0.25000000       0.00000000 </v>
   <v>      -0.25000000       0.25000000       0.00000000 </v>
   <v>       0.50000000       0.50000000       0.00000000 </v>
   <v>      -0.25000000       0.50000000       0.25000000 </v>
   <v>       0.00000000       0.00000000       0.00000000 </v>
   <v>       0.08333300       0.16666700       0.08333300 </v>
   <v>       0.16666700       0.33333300       0.16666700 </v>
   <v>       0.25000000       0.50000000       0.25000000 </v>
   <v>       0.29166700       0.54166700       0.33333300 </v>
   <v>       0.33333300       0.58333300       0.41666700 </v>
   <v>       0.37500000       0.62500000       0.50000000 </v>
   <v>       0.33333300       0.58333300       0.41666700 </v>
   <v>       0.29166700       0.54166700       0.33333300 </v>
   <v>       0.25000000       0.50000000       0.25000000 </v>
  </varray>
  <varray name="weights" >
   <v>       0.01562500 </v>
   <v>       0.12500000 </v>
   <v>       0.06250000 </v>
   <v>       0.09375000 </v>
   <v>       0.37500000 </v>
   <v>       0.18750000 </v>
   <v>       0.04687500 </v>
   <v>       0.09375000 </v>
   <v>       0.00000000 </v>
   <v>       0.00000000 </v>
   <v>       0.00000000 </v>
   <v>       0.00000000 </v>
   <v>       0.00000000 </v>
   <v>       0.00000000 </v>
   <v>       0.00000000 </v>
   <v>       0.00000000 </v>
   <v>       0.00000000 </v>
   <v>       0.00000000 </v>
  </varray>
 </kpoints>
 <parameters>
  <separator name="general" >
   <i type="string" name="SYSTEM">Ni fcc bulk</i>
   <i type="logical" name="LCOMPAT"> F  </i>
  </separator>
  <separator name="electronic" >
   <i type="string" name="PREC">normal</i>
   <i name="ENMAX">    269.53200000</i>
   <i name="ENAUG">    544.56500000</i>
   <i name="EDIFF">      0.00010000</i>
   <i type="int" name="IALGO">    38</i>
   <i type="int" name="IWAVPR">    10</i>
   <i type="int" name="NBANDS">     9</i>
   <i name="NELECT">     10.00000000</i>
   <i type="int" name="TURBO">     0</i>
   <i type="int" name="IRESTART">     0</i>
   <i type="int" name="NREBOOT">     0</i>
   <i type="int" name="NMIN">     0</i>
   <i name="EREF">      0.00000000</i>
   <separator name="electronic smearing" >
    <i type="int" name="ISMEAR">     0</i>
    <i name="SIGMA">      0.10000000</i>
    <i name="KSPACING">      0.50000000</i>
    <i type="logical" name="KGAMMA"> T  </i>
   </separator>
   <separator name="electronic projectors" >
    <i type="logical" name="LREAL"> F  </i>
    <v name="ROPT">      0.00000000</v>
    <i type="int" name="LMAXPAW">  -100</i>
    <i type="int" name="LMAXMIX">     2</i>
    <i type="logical" name="NLSPLINE"> F  </i>
   </separator>
   <separator name="electronic startup" >
    <i type="int" name="ISTART">     0</i>
    <i type="int" name="ICHARG">     2</i>
    <i type="int" name="INIWAV">     1</i>
   </separator>
   <separator name="electronic spin" >
    <i type="int" name="ISPIN">     1</i>
    <i type="logical" name="LNONCOLLINEAR"> F  </i>
    <v name="MAGMOM">      1.00000000</v>
    <i name="NUPDOWN">     -1.00000000</i>
    <i type="logical" name="LSORBIT"> F  </i>
    <v name="SAXIS">      0.00000000      0.00000000      1.00000000</v>
    <i type="logical" name="LSPIRAL"> F  </i>
    <v name="QSPIRAL">      0.00000000      0.00000000      0.00000000</v>
    <i type="logical" name="LZEROZ"> F  </i>
   </separator>
   <separator name="electronic exchange-correlation" >
    <i type="logical" name="LASPH"> F  </i>
    <i type="logical" name="LMETAGGA"> F  </i>
   </separator>
   <separator name="electronic convergence" >
    <i type="int" name="NELM">    60</i>
    <i type="int" name="NELMDL">    -5</i>
    <i type="int" name="NELMIN">     2</i>
    <i name="ENINI">    269.53200000</i>
    <separator name="electronic convergence detail" >
     <i type="logical" name="LDIAG"> T  </i>
     <i type="logical" name="LSUBROT"> F  </i>
     <i name="WEIMIN">      0.00000000</i>
     <i name="EBREAK">      0.00000278</i>
     <i name="DEPER">      0.30000000</i>
     <i type="int" name="NRMM">     4</i>
     <i name="TIME">      0.40000000</i>
    </separator>
   </separator>
   <separator name="electronic mixer" >
    <i name="AMIX">      0.40000000</i>
    <i name="BMIX">      1.00000000</i>
    <i name="AMIN">      0.10000000</i>
    <i name="AMIX_MAG">      1.60000000</i>
    <i name="BMIX_MAG">      1.00000000</i>
    <separator name="electronic mixer details" >
     <i type="int" name="IMIX">     4</i>
     <i type="logical" name="MIXFIRST"> F  </i>
     <i type="int" name="MAXMIX">   -45</i>
     <i name="WC">    100.00000000</i>
     <i type="int" name="INIMIX">     1</i>
     <i type="int" name="MIXPRE">     1</i>
     <i type="int" name="MREMOVE">     5</i>
    </separator>
   </separator>
   <separator name="electronic dipolcorrection" >
    <i type="logical" name="LDIPOL"> F  </i>
    <i type="logical" name="LMONO"> F  </i>
    <i type="int" name="IDIPOL">     0</i>
    <i name="EPSILON">      1.00000000</i>
    <v name="DIPOL">   -100.00000000   -100.00000000   -100.00000000</v>
    <i name="EFIELD">      0.00000000</i>
   </separator>
  </separator>
  <separator name="grids" >
   <i type="int" name="NGX">    10</i>
   <i type="int" name="NGY">    10</i>
   <i type="int" name="NGZ">    10</i>
   <i type="int" name="NGXF">    20</i>
   <i type="int" name="NGYF">    20</i>
   <i type="int" name="NGZF">    20</i>
   <i type="logical" name="ADDGRID"> F  </i>
  </separator>
  <separator name="ionic" >
   <i type="int" name="NSW">     0</i>
   <i type="int" name="IBRION">    -1</i>
   <i type="int" name="MDALGO">     0</i>
   <i type="int" name="ISIF">     2</i>
   <i name="PSTRESS">      0.00000000</i>
   <i name="EDIFFG">      0.00100000</i>
   <i type="int" name="NFREE">     0</i>
   <i name="POTIM">      0.50000000</i>
   <i name="SMASS">     -3.00000000</i>
   <i name="SCALEE">      1.00000000</i>
  </separator>
  <separator name="ionic md" >
   <i name="TEBEG">      0.00010000</i>
   <i name="TEEND">      0.00010000</i>
   <i type="int" name="NBLOCK">     1</i>
   <i type="int" name="KBLOCK">     1</i>
   <i type="int" name="NPACO">   256</i>
   <i name="APACO">     16.00000000</i>
  </separator>
  <separator name="symmetry" >
   <i type="int" name="ISYM">     2</i>
   <i name="SYMPREC">      0.00001000</i>
  </separator>
  <separator name="dos" >
   <i type="int" name="LORBIT">     0</i>
   <v name="RWIGS">     -1.00000000</v>
   <i type="int" name="NEDOS">    50</i>
   <i name="EMIN">     10.00000000</i>
   <i name="EMAX">    -10.00000000</i>
   <i name="EFERMI">      0.00000000</i>
  </separator>
  <separator name="writing" >
   <i type="int" name="NWRITE">     2</i>
   <i type="logical" name="LWAVE"> T  </i>
   <i type="logical" name="LDOWNSAMPLE"> F  </i>
   <i type="logical" name="LCHARG"> T  </i>
   <i type="logical" name="LPARD"> F  </i>
   <i type="logical" name="LVTOT"> F  </i>
   <i type="logical" name="LVHAR"> F  </i>
   <i type="logical" name="LELF"> F  </i>
   <i type="logical" name="LOPTICS"> T  </i>
   <v name="STM">      0.00000000      0.00000000      0.00000000      0.00000000      0.00000000      0.00000000      0.00000000</v>
  </separator>
  <separator name="performance" >
   <i type="int" name="NPAR">     1</i>
   <i type="int" name="NSIM">     4</i>
   <i type="int" name="NBLK">    -1</i>
   <i type="logical" name="LPLANE"> T  </i>
   <i type="logical" name="LSCALAPACK"> F  </i>
   <i type="logical" name="LSCAAWARE"> F  </i>
   <i type="logical" name="LSCALU"> F  </i>
   <i type="logical" name="LASYNC"> F  </i>
   <i type="logical" name="LORBITALREAL"> F  </i>
  </separator>
  <separator name="miscellaneous" >
   <i type="int" name="IDIOT">     3</i>
   <i type="int" name="ISPECIAL">     0</i>
   <i type="logical" name="LMUSIC"> F  </i>
   <v name="POMASS">     58.69000000</v>
   <v name="DARWINR">      0.00000000</v>
   <v name="DARWINV">      1.00000000</v>
   <i type="logical" name="LCORR"> T  </i>
  </separator>
  <i type="logical" name="GGA_COMPAT"> T  </i>
  <i type="logical" name="LBERRY"> F  </i>
  <i type="int" name="ICORELEVEL">     0</i>
  <i type="logical" name="LDAU"> F  </i>
  <i type="int" name="I_CONSTRAINED_M">     0</i>
  <separator name="electronic exchange-correlation" >
   <i type="string" name="GGA">--</i>
   <i type="int" name="VOSKOWN">     0</i>
   <i type="logical" name="LHFCALC"> F  </i>
   <i type="string" name="PRECFOCK"></i>
   <i type="logical" name="LSYMGRAD"> F  </i>
   <i type="logical" name="LHFONE"> F  </i>
   <i type="logical" name="LRHFCALC"> F  </i>
   <i type="logical" name="LTHOMAS"> F  </i>
   <i type="logical" name="LMODELHF"> F  </i>
   <i name="ENCUT4O">     -1.00000000</i>
   <i type="int" name="EXXOEP">     0</i>
   <i type="int" name="FOURORBIT">     0</i>
   <i name="AEXX">      0.00000000</i>
   <i name="HFALPHA">      0.00000000</i>
   <i name="MCALPHA">      0.00000000</i>
   <i name="ALDAX">      1.00000000</i>
   <i name="AGGAX">      1.00000000</i>
   <i name="ALDAC">      1.00000000</i>
   <i name="AGGAC">      1.00000000</i>
   <i type="int" name="NKREDX">     1</i>
   <i type="int" name="NKREDY">     1</i>
   <i type="int" name="NKREDZ">     1</i>
   <i type="logical" name="SHIFTRED"> F  </i>
   <i type="logical" name="ODDONLY"> F  </i>
   <i type="logical" name="EVENONLY"> F  </i>
   <i type="int" name="LMAXFOCK">     0</i>
   <i type="int" name="NMAXFOCKAE">     0</i>
   <i type="logical" name="LFOCKAEDFT"> F  </i>
   <i name="HFSCREEN">      0.00000000</i>
   <i name="HFSCREENC">      0.00000000</i>
   <i type="int" name="NBANDSGWLOW">     0</i>
  </separator>
  <separator name="vdW DFT" >
   <i type="logical" name="LUSE_VDW"> F  </i>
   <i name="Zab_VDW">     -0.84910000</i>
   <i name="PARAM1">      0.12340000</i>
   <i name="PARAM2">      1.00000000</i>
   <i name="PARAM3">      0.00000000</i>
  </separator>
  <separator name="model GW" >
   <i type="int" name="MODEL_GW">     0</i>
   <i name="MODEL_EPS0">      6.55800000</i>
   <i name="MODEL_ALPHA">      1.00000000</i>
  </separator>
  <separator name="linear response parameters" >
   <i type="logical" name="LEPSILON"> F  </i>
   <i type="logical" name="LRPA"> F  </i>
   <i type="logical" name="LNABLA"> F  </i>
   <i type="logical" name="LVEL"> F  </i>
   <i type="int" name="KINTER">     0</i>
   <i name="CSHIFT">      0.10000000</i>
   <i name="OMEGAMAX">     -1.00000000</i>
   <i name="DEG_THRESHOLD">      0.00200000</i>
   <i name="RTIME">     -0.10000000</i>
   <i name="WPLASMAI">      0.00000000</i>
   <v name="DFIELD">      0.00000000      0.00000000      0.00000000</v>
   <v name="WPLASMA">      0.00000000      0.00000000      0.00000000      0.00000000      0.00000000      0.00000000      0.00000000      0.00000000      0.00000000</v>
  </separator>
  <separator name="orbital magnetization" >
   <i type="logical" name="NUCIND"> F  </i>
   <v name="MAGPOS">      0.00000000      0.00000000      0.00000000</v>
   <i type="logical" name="LNICSALL"> T  </i>
   <i type="logical" name="ORBITALMAG"> F  </i>
   <i type="logical" name="LMAGBLOCH"> F  </i>
   <i type="logical" name="LCHIMAG"> F  </i>
   <i type="logical" name="LGAUGE"> T  </i>
   <i type="int" name="MAGATOM">     0</i>
   <v name="MAGDIPOL">      0.00000000      0.00000000      0.00000000</v>
   <v name="AVECCONST">      0.00000000      0.00000000      0.00000000</v>
  </separator>
  <separator name="response functions" >
   <i type="logical" name="LADDER"> F  </i>
   <i type="logical" name="LRPAFORCE"> F  </i>
   <i type="logical" name="LFXC"> F  </i>
   <i type="logical" name="LHARTREE"> T  </i>
   <i type="int" name="IBSE">     0</i>
   <v type="int" name="KPOINT">    -1     0     0     0</v>
   <i type="logical" name="LTCTE"> F  </i>
   <i type="logical" name="LTETE"> F  </i>
   <i type="logical" name="LTRIPLET"> F  </i>
   <i type="logical" name="LFXCEPS"> F  </i>
   <i type="logical" name="LFXHEG"> F  </i>
   <i type="int" name="NATURALO">     2</i>
   <i type="logical" name="L2ORDER"> F  </i>
   <i type="logical" name="LMP2LT"> F  </i>
   <i type="logical" name="LUSEW"> F  </i>
   <i name="ENCUTGW">     -2.00000000</i>
   <i name="ENCUTGWSOFT">     -2.00000000</i>
   <i name="ENCUTLF">     -1.00000000</i>
   <i type="int" name="LMAXMP2">    -1</i>
   <i name="SCISSOR">      0.00000000</i>
   <i type="int" name="NOMEGA">     0</i>
   <i type="int" name="NOMEGAR">     0</i>
   <i type="int" name="NBANDSGW">    -1</i>
   <i type="int" name="NBANDSO">    -1</i>
   <i type="int" name="NBANDSV">    -1</i>
   <i type="int" name="NELM">     1</i>
   <i type="int" name="NELMHF">     1</i>
   <i type="int" name="DIM">     3</i>
   <i type="int" name="ANTIRES">     0</i>
   <i name="OMEGAMAX">    -30.00000000</i>
   <i name="OMEGAMIN">    -30.00000000</i>
   <i name="OMEGATL">   -200.00000000</i>
   <i type="int" name="OMEGAGRID">   140</i>
   <i name="CSHIFT">     -0.10000000</i>
   <i type="logical" name="SELFENERGY"> F  </i>
   <i type="logical" name="LSPECTRAL"> F  </i>
   <i type="logical" name="LSPECTRALGW"> F  </i>
   <i type="logical" name="LSINGLES"> F  </i>
   <i type="logical" name="LFERMIGW"> F  </i>
   <i type="logical" name="ODDONLYGW"> F  </i>
   <i type="logical" name="EVENONLYGW"> F  </i>
   <i type="int" name="NKREDLFX">     1</i>
   <i type="int" name="NKREDLFY">     1</i>
   <i type="int" name="NKREDLFZ">     1</i>
   <i type="int" name="MAXMEM">  2800</i>
   <i type="int" name="TELESCOPE">     0</i>
   <i type="int" name="TAUPAR">     1</i>
   <i type="int" name="OMEGAPAR">    -1</i>
   <i name="LAMBDA">      1.00000000</i>
  </separator>
  <separator name="External order field" >
   <i name="OFIELD_KAPPA">      0.00000000</i>
   <v name="OFIELD_K">      0.00000000      0.00000000      0.00000000</v>
   <i name="OFIELD_Q6_NEAR">      0.00000000</i>
   <i name="OFIELD_Q6_FAR">      0.00000000</i>
   <i name="OFIELD_A">      0.00000000</i>
  </separator>
 </parameters>
 <atominfo>
  <atoms>       1 </atoms>
  <types>       1 </types>
  <array name="atoms" >
   <dimension dim="1">ion</dimension>
   <field type="string">element</field>
   <field type="int">atomtype</field>
   <set>
    <rc><c>Ni</c><c>   1</c></rc>
   </set>
  </array>
  <array name="atomtypes" >
   <dimension dim="1">type</dimension>
   <field type="int">atomspertype</field>
   <field type="string">element</field>
   <field>mass</field>
   <field>valence</field>
   <field type="string">pseudopotential</field>
   <set>
    <rc><c>   1</c><c>Ni</c><c>     58.69000000</c><c>     10.00000000</c><c>  PAW_PBE Ni 02Aug2007                  </c></rc>
   </set>
  </array>
 </atominfo>
 <structure name="initialpos" >
  <crystal>
   <varray name="basis" >
    <v>       1.76142189       1.76142189       0.00000000 </v>
    <v>       0.00000000       1.76142189       1.76142189 </v>
    <v>       1.76142189       0.00000000       1.76142189 </v>
   </varray>
   <i name="volume">     10.93000000 </i>
   <varray name="rec_basis" >
    <v>       0.28386158       0.28386158      -0.28386158 </v>
    <v>      -0.28386158       0.28386158       0.28386158 </v>
    <v>       0.28386158      -0.28386158       0.28386158 </v>
   </varray>
  </crystal>
  <varray name="positions" >
   <v>       0.00000000       0.00000000       0.00000000 </v>
  </varray>
 </structure>
 <calculation>
  <scstep>
   <time name="dav">    0.85    0.04</time>
   <time name="total">    0.87    0.06</time>
   <energy>
    <i name="alphaZ">     46.66001921 </i>
    <i name="ewald">   -937.04180826 </i>
    <i name="hartreedc">   -245.68884612 </i>
    <i name="XCdc">     31.64721736 </i>
    <i name="pawpsdc">    962.94539393 </i>
    <i name="pawaedc">  -1029.79538200 </i>
    <i name="eentropy">     -0.01919940 </i>
    <i name="bandstr">    106.47422232 </i>
    <i name="atom">   1077.63565123 </i>
    <i name="e_fr_energy">     12.81726828 </i>
    <i name="e_wo_entrp">     12.83646768 </i>
    <i name="e_0_energy">     12.82686798 </i>
   </energy>
  </scstep>
  <scstep>
   <time name="dav">    0.72    0.03</time>
   <time name="total">    0.73    0.03</time>
   <energy>
    <i name="e_fr_energy">     -6.32714398 </i>
    <i name="e_wo_entrp">     -6.30242718 </i>
    <i name="e_0_energy">     -6.31478558 </i>
   </energy>
  </scstep>
  <scstep>
   <time name="dav">    1.06    0.24</time>
   <time name="total">    1.07    0.24</time>
   <energy>
    <i name="e_fr_energy">     -6.50339943 </i>
    <i name="e_wo_entrp">     -6.47979607 </i>
    <i name="e_0_energy">     -6.49159775 </i>
   </energy>
  </scstep>
  <scstep>
   <time name="dav">    0.78    0.03</time>
   <time name="total">    0.79    0.03</time>
   <energy>
    <i name="e_fr_energy">     -6.50387348 </i>
    <i name="e_wo_entrp">     -6.48026725 </i>
    <i name="e_0_energy">     -6.49207037 </i>
   </energy>
  </scstep>
  <scstep>
   <time name="dav">    0.94    0.96</time>
   <time name="total">    1.00    0.96</time>
   <energy>
    <i name="e_fr_energy">     -6.50387727 </i>
    <i name="e_wo_entrp">     -6.48027096 </i>
    <i name="e_0_energy">     -6.49207411 </i>
   </energy>
  </scstep>
  <scstep>
   <time name="dav">    0.74    0.03</time>
   <time name="total">    0.96    0.04</time>
   <energy>
    <i name="e_fr_energy">     -5.78839324 </i>
    <i name="e_wo_entrp">     -5.75953679 </i>
    <i name="e_0_energy">     -5.77396502 </i>
   </energy>
  </scstep>
  <scstep>
   <time name="dav">    0.92    0.95</time>
   <time name="total">    1.14    0.96</time>
   <energy>
    <i name="e_fr_energy">     -5.49630797 </i>
    <i name="e_wo_entrp">     -5.46842252 </i>
    <i name="e_0_energy">     -5.48236524 </i>
   </energy>
  </scstep>
  <scstep>
   <time name="dav">    0.74    0.03</time>
   <time name="total">    0.95    0.04</time>
   <energy>
    <i name="e_fr_energy">     -5.46198643 </i>
    <i name="e_wo_entrp">     -5.43241557 </i>
    <i name="e_0_energy">     -5.44720100 </i>
   </energy>
  </scstep>
  <scstep>
   <time name="dav">    0.90    0.95</time>
   <time name="total">    1.12    0.96</time>
   <energy>
    <i name="e_fr_energy">     -5.45994840 </i>
    <i name="e_wo_entrp">     -5.43033044 </i>
    <i name="e_0_energy">     -5.44513942 </i>
   </energy>
  </scstep>
  <scstep>
   <time name="dav">    0.58    0.02</time>
   <time name="total">    0.75    0.03</time>
   <energy>
    <i name="alphaZ">     46.66001921 </i>
    <i name="ewald">   -937.04180826 </i>
    <i name="hartreedc">   -224.83334405 </i>
    <i name="XCdc">     30.60598657 </i>
    <i name="pawpsdc">   1131.96260538 </i>
    <i name="pawaedc">  -1200.30497803 </i>
    <i name="eentropy">     -0.02930510 </i>
    <i name="bandstr">     69.88523806 </i>
    <i name="atom">   1077.63565123 </i>
    <i name="e_fr_energy">     -5.45993498 </i>
    <i name="e_wo_entrp">     -5.43062988 </i>
    <i name="e_0_energy">     -5.44528243 </i>
   </energy>
  </scstep>
  <structure>
   <crystal>
    <varray name="basis" >
     <v>       1.76142189       1.76142189       0.00000000 </v>
     <v>       0.00000000       1.76142189       1.76142189 </v>
     <v>       1.76142189       0.00000000       1.76142189 </v>
    </varray>
    <i name="volume">     10.93000000 </i>
    <varray name="rec_basis" >
     <v>       0.28386158       0.28386158      -0.28386158 </v>
     <v>      -0.28386158       0.28386158       0.28386158 </v>
     <v>       0.28386158      -0.28386158       0.28386158 </v>
    </varray>
   </crystal>
   <varray name="positions" >
    <v>       0.00000000       0.00000000       0.00000000 </v>
   </varray>
  </structure>
  <varray name="forces" >
   <v>       0.00000000       0.00000000       0.00000000 </v>
  </varray>
  <varray name="stress" >
   <v>    -150.90187874      -0.00000000      -0.00000000 </v>
   <v>       0.00000000    -150.90187874      -0.00000000 </v>
   <v>       0.00000000       0.00000000    -150.90187874 </v>
  </varray>
  <energy>
   <i name="e_fr_energy">     -5.45993498 </i>
   <i name="e_wo_entrp">     -5.44528243 </i>
   <i name="e_0_energy">     -0.02930510 </i>
  </energy>
  <time name="totalsc">   11.77    4.39</time>
  <eigenvalues>
   <array>
    <dimension dim="1">band</dimension>
    <dimension dim="2">kpoint</dimension>
    <dimension dim="3">spin</dimension>
    <field>eigene</field>
    <field>occ</field>
    <set>
     <set comment="spin 1">
      <set comment="kpoint 1">
       <r>    0.3106    1.0000 </r>
       <r>    7.2095    1.0000 </r>
       <r>    7.2095    1.0000 </r>
       <r>    7.2095    1.0000 </r>
       <r>    8.3181    1.0000 </r>
       <r>    8.3181    1.0000 </r>
       <r>   32.9464    0.0000 </r>
       <r>   36.8258    0.0000 </r>
       <r>   36.8260    0.0000 </r>
      </set>
      <set comment="kpoint 2">
       <r>    2.5488    1.0000 </r>
       <r>    6.8499    1.0000 </r>
       <r>    7.4168    1.0000 </r>
       <r>    7.4168    1.0000 </r>
       <r>    8.4087    1.0000 </r>
       <r>    8.4088    1.0000 </r>
       <r>   23.7687    0.0000 </r>
       <r>   33.0553    0.0000 </r>
       <r>   34.7227    0.0000 </r>
      </set>
      <set comment="kpoint 3">
       <r>    4.6867    1.0000 </r>
       <r>    7.1819    1.0000 </r>
       <r>    7.1820    1.0000 </r>
       <r>    8.9936    0.9629 </r>
       <r>    9.0326    0.8912 </r>
       <r>    9.0327    0.8910 </r>
       <r>   15.1153    0.0000 </r>
       <r>   31.4449    0.0000 </r>
       <r>   33.9465    0.0000 </r>
      </set>
      <set comment="kpoint 4">
       <r>    3.2082    1.0000 </r>
       <r>    6.2715    1.0000 </r>
       <r>    7.6910    1.0000 </r>
       <r>    8.0661    1.0000 </r>
       <r>    8.0661    1.0000 </r>
       <r>    8.6776    1.0000 </r>
       <r>   28.5689    0.0000 </r>
       <r>   28.5690    0.0000 </r>
       <r>   29.4121    0.0000 </r>
      </set>
      <set comment="kpoint 5">
       <r>    5.4265    1.0000 </r>
       <r>    6.0931    1.0000 </r>
       <r>    7.1948    1.0000 </r>
       <r>    8.0491    1.0000 </r>
       <r>    9.0828    0.6993 </r>
       <r>   11.6849    0.0000 </r>
       <r>   17.8228    0.0000 </r>
       <r>   23.8974    0.0000 </r>
       <r>   27.4653    0.0000 </r>
      </set>
      <set comment="kpoint 6">
       <r>    5.1856    1.0000 </r>
       <r>    6.5294    1.0000 </r>
       <r>    6.8071    1.0000 </r>
       <r>    7.8779    1.0000 </r>
       <r>    8.2722    1.0000 </r>
       <r>   10.5021    0.0000 </r>
       <r>   20.8798    0.0000 </r>
       <r>   22.2459    0.0000 </r>
       <r>   32.2668    0.0000 </r>
      </set>
      <set comment="kpoint 7">
       <r>    4.8464    1.0000 </r>
       <r>    5.4029    1.0000 </r>
       <r>    9.0321    0.8926 </r>
       <r>    9.1984    0.1330 </r>
       <r>    9.1984    0.1330 </r>
       <r>   11.7300    0.0000 </r>
       <r>   18.5991    0.0000 </r>
       <r>   24.0926    0.0000 </r>
       <r>   24.0927    0.0000 </r>
      </set>
      <set comment="kpoint 8">
       <r>    5.7441    1.0000 </r>
       <r>    6.5181    1.0000 </r>
       <r>    6.5181    1.0000 </r>
       <r>    8.2420    1.0000 </r>
       <r>    9.2005    0.1267 </r>
       <r>   17.0883    0.0000 </r>
       <r>   17.0885    0.0000 </r>
       <r>   19.3301    0.0000 </r>
       <r>   20.4238    0.0000 </r>
      </set>
      <set comment="kpoint 9">
       <r>    0.3106    1.0000 </r>
       <r>    7.2095    1.0000 </r>
       <r>    7.2095    1.0000 </r>
       <r>    7.2095    1.0000 </r>
       <r>    8.3181    1.0000 </r>
       <r>    8.3181    1.0000 </r>
       <r>   32.9464    0.0000 </r>
       <r>   36.8260    0.0000 </r>
       <r>   36.8260    0.0000 </r>
      </set>
      <set comment="kpoint 10">
       <r>    1.0220    1.0000 </r>
       <r>    7.0135    1.0000 </r>
       <r>    7.3574    1.0000 </r>
       <r>    7.3682    1.0000 </r>
       <r>    8.1744    1.0000 </r>
       <r>    8.3618    1.0000 </r>
       <r>   30.5428    0.0000 </r>
       <r>   31.7660    0.0000 </r>
       <r>   35.6552    0.0000 </r>
      </set>
      <set comment="kpoint 11">
       <r>    2.9566    1.0000 </r>
       <r>    6.6441    1.0000 </r>
       <r>    7.3483    1.0000 </r>
       <r>    7.7540    1.0000 </r>
       <r>    7.9230    1.0000 </r>
       <r>    8.9039    0.9989 </r>
       <r>   25.5412    0.0000 </r>
       <r>   26.2982    0.0000 </r>
       <r>   35.9132    0.0000 </r>
      </set>
      <set comment="kpoint 12">
       <r>    5.1856    1.0000 </r>
       <r>    6.5294    1.0000 </r>
       <r>    6.8070    1.0000 </r>
       <r>    7.8780    1.0000 </r>
       <r>    8.2722    1.0000 </r>
       <r>   10.5022    0.0000 </r>
       <r>   20.8798    0.0000 </r>
       <r>   22.2459    0.0000 </r>
       <r>   32.2670    0.0000 </r>
      </set>
      <set comment="kpoint 13">
       <r>    5.4921    1.0000 </r>
       <r>    6.5866    1.0000 </r>
       <r>    6.7142    1.0000 </r>
       <r>    7.8627    1.0000 </r>
       <r>    8.5229    1.0000 </r>
       <r>   11.1942    0.0000 </r>
       <r>   18.7559    0.0000 </r>
       <r>   22.7685    0.0000 </r>
       <r>   30.0024    0.0000 </r>
      </set>
      <set comment="kpoint 14">
       <r>    5.5731    1.0000 </r>
       <r>    6.4604    1.0000 </r>
       <r>    6.9469    1.0000 </r>
       <r>    7.8195    1.0000 </r>
       <r>    8.8230    1.0000 </r>
       <r>   12.0918    0.0000 </r>
       <r>   16.6090    0.0000 </r>
       <r>   24.0363    0.0000 </r>
       <r>   27.7640    0.0000 </r>
      </set>
      <set comment="kpoint 15">
       <r>    5.5805    1.0000 </r>
       <r>    6.4064    1.0000 </r>
       <r>    7.0592    1.0000 </r>
       <r>    7.7973    1.0000 </r>
       <r>    8.9510    0.9915 </r>
       <r>   12.7564    0.0000 </r>
       <r>   15.4984    0.0000 </r>
       <r>   25.3047    0.0000 </r>
       <r>   26.1763    0.0000 </r>
      </set>
      <set comment="kpoint 16">
       <r>    5.5731    1.0000 </r>
       <r>    6.4604    1.0000 </r>
       <r>    6.9469    1.0000 </r>
       <r>    7.8195    1.0000 </r>
       <r>    8.8230    1.0000 </r>
       <r>   12.0918    0.0000 </r>
       <r>   16.6090    0.0000 </r>
       <r>   24.0363    0.0000 </r>
       <r>   27.7640    0.0000 </r>
      </set>
      <set comment="kpoint 17">
       <r>    5.4921    1.0000 </r>
       <r>    6.5866    1.0000 </r>
       <r>    6.7142    1.0000 </r>
       <r>    7.8627    1.0000 </r>
       <r>    8.5229    1.0000 </r>
       <r>   11.1942    0.0000 </r>
       <r>   18.7559    0.0000 </r>
       <r>   22.7685    0.0000 </r>
       <r>   30.0024    0.0000 </r>
      </set>
      <set comment="kpoint 18">
       <r>    5.1856    1.0000 </r>
       <r>    6.5294    1.0000 </r>
       <r>    6.8070    1.0000 </r>
       <r>    7.8780    1.0000 </r>
       <r>    8.2722    1.0000 </r>
       <r>   10.5022    0.0000 </r>
       <r>   20.8798    0.0000 </r>
       <r>   22.2459    0.0000 </r>
       <r>   32.2669    0.0000 </r>
      </set>
     </set>
    </set>
   </array>
  </eigenvalues>
  <separator name="orbital magnetization" >
   <v name="MAGDIPOLOUT">      0.00000000      0.00000000      0.00000000</v>
  </separator>
  <dielectricfunction>
   <imag>
    <array>
     <dimension dim="1">gridpoints</dimension>
     <field>energy</field>
     <field>xx</field>
     <field>yy</field>
     <field>zz</field>
     <field>xy</field>
     <field>yz</field>
     <field>zx</field>
     <set>
      <r>     0.0000     0.0000     0.0000     0.0000     0.0000     0.0000     0.0000 </r>
      <r>     0.0439  2248.6902  2248.6902  2248.6902    -0.0000     0.0000    -0.0000 </r>
      <r>     0.0877  3503.1602  3503.1602  3503.1602     0.0000     0.0000    -0.0000 </r>
      <r>     0.1316  3536.5042  3536.5042  3536.5042     0.0000    -0.0000     0.0000 </r>
      <r>     0.1754  2830.4578  2830.4578  2830.4578     0.0000    -0.0000     0.0000 </r>
      <r>     0.2193  1979.4087  1979.4087  1979.4087     0.0000    -0.0000     0.0000 </r>
      <r>     0.2632  1301.3274  1301.3274  1301.3274     0.0000    -0.0000     0.0000 </r>
      <r>     0.3070   849.7437   849.7437   849.7437     0.0000    -0.0000     0.0000 </r>
      <r>     0.3509   569.1002   569.1002   569.1002     0.0000    -0.0000     0.0000 </r>
      <r>     0.3948   395.4287   395.4287   395.4287     0.0000    -0.0000     0.0000 </r>
      <r>     0.4386   284.9374   284.9374   284.9374     0.0000    -0.0000     0.0000 </r>
      <r>     0.4825   211.9669   211.9669   211.9669     0.0000    -0.0000     0.0000 </r>
      <r>     0.5263   161.9932   161.9932   161.9932     0.0000    -0.0000     0.0000 </r>
      <r>     0.5702   126.6568   126.6568   126.6568     0.0000    -0.0000     0.0000 </r>
      <r>     0.6141   100.9797   100.9797   100.9797     0.0000    -0.0000     0.0000 </r>
      <r>     0.6579    81.8879    81.8879    81.8879     0.0000    -0.0000     0.0000 </r>
      <r>     0.7018    67.4209    67.4209    67.4209     0.0000    -0.0000     0.0000 </r>
      <r>     0.7457    56.2956    56.2956    56.2956     0.0000    -0.0000     0.0000 </r>
      <r>     0.7895    47.6590    47.6590    47.6590     0.0000    -0.0000     0.0000 </r>
      <r>     0.8334    40.9392    40.9392    40.9392     0.0000    -0.0000     0.0000 </r>
      <r>     0.8772    35.7381    35.7381    35.7381     0.0000    -0.0000     0.0000 </r>
      <r>     0.9211    31.7275    31.7275    31.7275     0.0000    -0.0000     0.0000 </r>
      <r>     0.9650    28.5547    28.5547    28.5547     0.0000    -0.0000     0.0000 </r>
      <r>     1.0088    25.8239    25.8239    25.8239     0.0000    -0.0000     0.0000 </r>
      <r>     1.0527    23.2075    23.2075    23.2075     0.0000    -0.0000     0.0000 </r>
      <r>     1.0966    20.5911    20.5911    20.5911     0.0000    -0.0000     0.0000 </r>
      <r>     1.1404    18.0783    18.0783    18.0783     0.0000    -0.0000     0.0000 </r>
      <r>     1.1843    15.8388    15.8388    15.8388     0.0000    -0.0000     0.0000 </r>
      <r>     1.2281    13.9646    13.9646    13.9646     0.0000    -0.0000     0.0000 </r>
      <r>     1.2720    12.4445    12.4445    12.4445     0.0000    -0.0000     0.0000 </r>
      <r>     1.3159    11.2171    11.2171    11.2171     0.0000    -0.0000     0.0000 </r>
      <r>     1.3597    10.2191    10.2191    10.2191     0.0000    -0.0000     0.0000 </r>
      <r>     1.4036     9.4044     9.4044     9.4044     0.0000    -0.0000     0.0000 </r>
      <r>     1.4475     8.7447     8.7447     8.7447     0.0000    -0.0000     0.0000 </r>
      <r>     1.4913     8.2268     8.2268     8.2268     0.0000    -0.0000     0.0000 </r>
      <r>     1.5352     7.8519     7.8519     7.8519     0.0000    -0.0000     0.0000 </r>
      <r>     1.5790     7.6391     7.6391     7.6391     0.0000    -0.0000     0.0000 </r>
      <r>     1.6229     7.6318     7.6318     7.6318     0.0000    -0.0000     0.0000 </r>
      <r>     1.6668     7.9033     7.9033     7.9033     0.0000    -0.0000     0.0000 </r>
      <r>     1.7106     8.5410     8.5410     8.5410     0.0000    -0.0000    -0.0000 </r>
      <r>     1.7545     9.5747     9.5747     9.5747     0.0000    -0.0000    -0.0000 </r>
      <r>     1.7984    10.8486    10.8486    10.8486     0.0000    -0.0000    -0.0000 </r>
      <r>     1.8422    11.9475    11.9475    11.9475    -0.0000    -0.0000    -0.0000 </r>
      <r>     1.8861    12.3575    12.3575    12.3575    -0.0000    -0.0000    -0.0000 </r>
      <r>     1.9299    11.8319    11.8319    11.8319     0.0000    -0.0000    -0.0000 </r>
      <r>     1.9738    10.6038    10.6038    10.6038     0.0000    -0.0000    -0.0000 </r>
      <r>     2.0177     9.1964     9.1964     9.1964     0.0000    -0.0000    -0.0000 </r>
      <r>     2.0615     8.0551     8.0551     8.0551     0.0000    -0.0000     0.0000 </r>
      <r>     2.1054     7.3707     7.3707     7.3707     0.0000    -0.0000     0.0000 </r>
      <r>     2.1493     7.1519     7.1519     7.1519     0.0000    -0.0000     0.0000 </r>
      <r>     2.1931     7.3675     7.3675     7.3675     0.0000     0.0000     0.0000 </r>
      <r>     2.2370     8.0389     8.0389     8.0389     0.0000     0.0000     0.0000 </r>
      <r>     2.2808     9.2871     9.2871     9.2871     0.0000     0.0000     0.0000 </r>
      <r>     2.3247    11.3687    11.3687    11.3687     0.0000     0.0000     0.0000 </r>
      <r>     2.3686    14.6967    14.6967    14.6967     0.0000     0.0000     0.0000 </r>
      <r>     2.4124    19.7649    19.7649    19.7649     0.0000     0.0000     0.0000 </r>
      <r>     2.4563    26.8273    26.8273    26.8273     0.0000     0.0000     0.0000 </r>
      <r>     2.5002    35.2952    35.2952    35.2952     0.0000     0.0000    -0.0000 </r>
      <r>     2.5440    43.2588    43.2588    43.2588     0.0000     0.0000    -0.0000 </r>
      <r>     2.5879    47.9514    47.9514    47.9514     0.0000     0.0000    -0.0000 </r>
      <r>     2.6317    47.3738    47.3738    47.3738     0.0000     0.0000     0.0000 </r>
      <r>     2.6756    41.7884    41.7884    41.7884     0.0000     0.0000     0.0000 </r>
      <r>     2.7195    33.5015    33.5015    33.5015     0.0000     0.0000    -0.0000 </r>
      <r>     2.7633    25.1954    25.1954    25.1954     0.0000     0.0000    -0.0000 </r>
      <r>     2.8072    18.5180    18.5180    18.5180     0.0000     0.0000    -0.0000 </r>
      <r>     2.8511    13.8601    13.8601    13.8601     0.0000     0.0000    -0.0000 </r>
      <r>     2.8949    10.8679    10.8679    10.8679     0.0000     0.0000    -0.0000 </r>
      <r>     2.9388     8.9640     8.9640     8.9640     0.0000     0.0000    -0.0000 </r>
      <r>     2.9826     7.6317     7.6317     7.6317     0.0000    -0.0000    -0.0000 </r>
      <r>     3.0265     6.5391     6.5391     6.5391     0.0000    -0.0000    -0.0000 </r>
      <r>     3.0704     5.5609     5.5609     5.5609     0.0000    -0.0000    -0.0000 </r>
      <r>     3.1142     4.7085     4.7085     4.7085     0.0000    -0.0000    -0.0000 </r>
      <r>     3.1581     4.0227     4.0227     4.0227     0.0000     0.0000    -0.0000 </r>
      <r>     3.2020     3.5118     3.5118     3.5118     0.0000     0.0000    -0.0000 </r>
      <r>     3.2458     3.1526     3.1526     3.1526     0.0000     0.0000    -0.0000 </r>
      <r>     3.2897     2.9160     2.9160     2.9160     0.0000     0.0000    -0.0000 </r>
      <r>     3.3335     2.7837     2.7837     2.7837     0.0000     0.0000     0.0000 </r>
      <r>     3.3774     2.7551     2.7551     2.7551     0.0000    -0.0000     0.0000 </r>
      <r>     3.4213     2.8492     2.8492     2.8492     0.0000    -0.0000     0.0000 </r>
      <r>     3.4651     3.1040     3.1040     3.1040     0.0000    -0.0000     0.0000 </r>
      <r>     3.5090     3.5602     3.5602     3.5602     0.0000    -0.0000     0.0000 </r>
      <r>     3.5529     4.2149     4.2149     4.2149     0.0000    -0.0000     0.0000 </r>
      <r>     3.5967     4.9557     4.9557     4.9557     0.0000    -0.0000     0.0000 </r>
      <r>     3.6406     5.5424     5.5424     5.5424     0.0000    -0.0000    -0.0000 </r>
      <r>     3.6844     5.7146     5.7146     5.7146    -0.0000    -0.0000    -0.0000 </r>
      <r>     3.7283     5.3748     5.3748     5.3748    -0.0000    -0.0000    -0.0000 </r>
      <r>     3.7722     4.6704     4.6704     4.6704    -0.0000    -0.0000    -0.0000 </r>
      <r>     3.8160     3.8776     3.8776     3.8776    -0.0000    -0.0000    -0.0000 </r>
      <r>     3.8599     3.2149     3.2149     3.2149    -0.0000    -0.0000    -0.0000 </r>
      <r>     3.9038     2.7581     2.7581     2.7581    -0.0000    -0.0000    -0.0000 </r>
      <r>     3.9476     2.4779     2.4779     2.4779     0.0000    -0.0000    -0.0000 </r>
      <r>     3.9915     2.3165     2.3165     2.3165     0.0000    -0.0000     0.0000 </r>
      <r>     4.0353     2.2370     2.2370     2.2370     0.0000     0.0000     0.0000 </r>
      <r>     4.0792     2.2347     2.2347     2.2347     0.0000     0.0000     0.0000 </r>
      <r>     4.1231     2.3278     2.3278     2.3278     0.0000     0.0000     0.0000 </r>
      <r>     4.1669     2.5482     2.5482     2.5482     0.0000     0.0000     0.0000 </r>
      <r>     4.2108     2.9441     2.9441     2.9441     0.0000     0.0000     0.0000 </r>
      <r>     4.2547     3.5898     3.5898     3.5898     0.0000     0.0000     0.0000 </r>
      <r>     4.2985     4.5862     4.5862     4.5862     0.0000     0.0000     0.0000 </r>
      <r>     4.3424     6.0096     6.0096     6.0096     0.0000     0.0000     0.0000 </r>
      <r>     4.3862     7.7726     7.7726     7.7726     0.0000     0.0000     0.0000 </r>
      <r>     4.4301     9.4750     9.4750     9.4750     0.0000     0.0000     0.0000 </r>
      <r>     4.4740    10.4779    10.4779    10.4779     0.0000     0.0000     0.0000 </r>
      <r>     4.5178    10.3069    10.3069    10.3069     0.0000     0.0000     0.0000 </r>
      <r>     4.5617     9.0453     9.0453     9.0453     0.0000     0.0000     0.0000 </r>
      <r>     4.6056     7.2652     7.2652     7.2652     0.0000     0.0000     0.0000 </r>
      <r>     4.6494     5.5810     5.5810     5.5810     0.0000     0.0000     0.0000 </r>
      <r>     4.6933     4.3136     4.3136     4.3136     0.0000     0.0000     0.0000 </r>
      <r>     4.7371     3.4913     3.4913     3.4913     0.0000     0.0000     0.0000 </r>
      <r>     4.7810     3.0145     3.0145     3.0145     0.0000     0.0000     0.0000 </r>
      <r>     4.8249     2.7799     2.7799     2.7799     0.0000    -0.0000     0.0000 </r>
      <r>     4.8687     2.7228     2.7228     2.7228     0.0000    -0.0000     0.0000 </r>
      <r>     4.9126     2.8178     2.8178     2.8178     0.0000    -0.0000     0.0000 </r>
      <r>     4.9564     3.0737     3.0737     3.0737     0.0000    -0.0000     0.0000 </r>
      <r>     5.0003     3.5364     3.5364     3.5364     0.0000    -0.0000     0.0000 </r>
      <r>     5.0442     4.3015     4.3015     4.3015     0.0000    -0.0000     0.0000 </r>
      <r>     5.0880     5.5289     5.5289     5.5289     0.0000    -0.0000     0.0000 </r>
      <r>     5.1319     7.4247     7.4247     7.4247     0.0000    -0.0000     0.0000 </r>
      <r>     5.1758    10.1135    10.1135    10.1135     0.0000    -0.0000     0.0000 </r>
      <r>     5.2196    13.3670    13.3670    13.3670     0.0000    -0.0000     0.0000 </r>
      <r>     5.2635    16.3836    16.3836    16.3836     0.0000    -0.0000     0.0000 </r>
      <r>     5.3073    18.0318    18.0318    18.0318     0.0000    -0.0000     0.0000 </r>
      <r>     5.3512    17.6232    17.6232    17.6232     0.0000    -0.0000     0.0000 </r>
      <r>     5.3951    15.5091    15.5091    15.5091     0.0000    -0.0000     0.0000 </r>
      <r>     5.4389    12.7941    12.7941    12.7941     0.0000    -0.0000     0.0000 </r>
      <r>     5.4828    10.4822    10.4822    10.4822     0.0000    -0.0000     0.0000 </r>
      <r>     5.5267     8.9289     8.9289     8.9289     0.0000    -0.0000     0.0000 </r>
      <r>     5.5705     7.9326     7.9326     7.9326     0.0000    -0.0000     0.0000 </r>
      <r>     5.6144     7.1454     7.1454     7.1454     0.0000    -0.0000     0.0000 </r>
      <r>     5.6582     6.3976     6.3976     6.3976     0.0000    -0.0000     0.0000 </r>
      <r>     5.7021     5.7511     5.7511     5.7511     0.0000    -0.0000     0.0000 </r>
      <r>     5.7460     5.3646     5.3646     5.3646     0.0000    -0.0000    -0.0000 </r>
      <r>     5.7898     5.3719     5.3719     5.3719     0.0000    -0.0000    -0.0000 </r>
      <r>     5.8337     5.8773     5.8773     5.8773     0.0000    -0.0000    -0.0000 </r>
      <r>     5.8776     7.0226     7.0226     7.0226     0.0000    -0.0000    -0.0000 </r>
      <r>     5.9214     9.0306     9.0306     9.0306     0.0000    -0.0000    -0.0000 </r>
      <r>     5.9653    12.1304    12.1304    12.1304     0.0000    -0.0000    -0.0000 </r>
      <r>     6.0091    16.2903    16.2903    16.2903     0.0000    -0.0000    -0.0000 </r>
      <r>     6.0530    20.8728    20.8728    20.8728     0.0000    -0.0000    -0.0000 </r>
      <r>     6.0969    24.6367    24.6367    24.6367     0.0000    -0.0000    -0.0000 </r>
      <r>     6.1407    26.3825    26.3825    26.3825     0.0000    -0.0000    -0.0000 </r>
      <r>     6.1846    25.7304    25.7304    25.7304     0.0000    -0.0000    -0.0000 </r>
      <r>     6.2285    23.1828    23.1828    23.1828     0.0000    -0.0000    -0.0000 </r>
      <r>     6.2723    19.5541    19.5541    19.5541     0.0000    -0.0000    -0.0000 </r>
      <r>     6.3162    15.5642    15.5642    15.5642    -0.0000    -0.0000    -0.0000 </r>
      <r>     6.3600    11.8014    11.8014    11.8014    -0.0000    -0.0000    -0.0000 </r>
      <r>     6.4039     8.6879     8.6879     8.6879    -0.0000    -0.0000    -0.0000 </r>
      <r>     6.4478     6.3809     6.3809     6.3809    -0.0000    -0.0000    -0.0000 </r>
      <r>     6.4916     4.7948     4.7948     4.7948    -0.0000    -0.0000    -0.0000 </r>
      <r>     6.5355     3.7404     3.7404     3.7404     0.0000    -0.0000    -0.0000 </r>
      <r>     6.5794     3.0434     3.0434     3.0434     0.0000    -0.0000    -0.0000 </r>
      <r>     6.6232     2.5863     2.5863     2.5863     0.0000    -0.0000    -0.0000 </r>
      <r>     6.6671     2.3033     2.3033     2.3033     0.0000    -0.0000    -0.0000 </r>
      <r>     6.7109     2.1610     2.1610     2.1610     0.0000    -0.0000    -0.0000 </r>
      <r>     6.7548     2.1343     2.1343     2.1343     0.0000    -0.0000    -0.0000 </r>
      <r>     6.7987     2.1790     2.1790     2.1790     0.0000    -0.0000    -0.0000 </r>
      <r>     6.8425     2.2179     2.2179     2.2179     0.0000    -0.0000    -0.0000 </r>
      <r>     6.8864     2.1670     2.1670     2.1670     0.0000    -0.0000    -0.0000 </r>
      <r>     6.9303     1.9888     1.9888     1.9888     0.0000    -0.0000    -0.0000 </r>
      <r>     6.9741     1.7190     1.7190     1.7190     0.0000    -0.0000    -0.0000 </r>
      <r>     7.0180     1.4318     1.4318     1.4318     0.0000    -0.0000    -0.0000 </r>
      <r>     7.0618     1.1856     1.1856     1.1856     0.0000    -0.0000    -0.0000 </r>
      <r>     7.1057     0.9995     0.9995     0.9995     0.0000    -0.0000    -0.0000 </r>
      <r>     7.1496     0.8662     0.8662     0.8662     0.0000    -0.0000    -0.0000 </r>
      <r>     7.1934     0.7706     0.7706     0.7706     0.0000    -0.0000    -0.0000 </r>
      <r>     7.2373     0.7000     0.7000     0.7000     0.0000    -0.0000    -0.0000 </r>
      <r>     7.2812     0.6464     0.6464     0.6464     0.0000    -0.0000    -0.0000 </r>
      <r>     7.3250     0.6048     0.6048     0.6048     0.0000    -0.0000    -0.0000 </r>
      <r>     7.3689     0.5725     0.5725     0.5725     0.0000    -0.0000    -0.0000 </r>
      <r>     7.4127     0.5481     0.5481     0.5481     0.0000    -0.0000    -0.0000 </r>
      <r>     7.4566     0.5310     0.5310     0.5310     0.0000    -0.0000    -0.0000 </r>
      <r>     7.5005     0.5217     0.5217     0.5217     0.0000    -0.0000    -0.0000 </r>
      <r>     7.5443     0.5218     0.5218     0.5218     0.0000    -0.0000    -0.0000 </r>
      <r>     7.5882     0.5345     0.5345     0.5345     0.0000    -0.0000    -0.0000 </r>
      <r>     7.6321     0.5658     0.5658     0.5658     0.0000    -0.0000    -0.0000 </r>
      <r>     7.6759     0.6248     0.6248     0.6248     0.0000    -0.0000    -0.0000 </r>
      <r>     7.7198     0.7214     0.7214     0.7214     0.0000    -0.0000    -0.0000 </r>
      <r>     7.7636     0.8566     0.8566     0.8566     0.0000    -0.0000    -0.0000 </r>
      <r>     7.8075     1.0083     1.0083     1.0083     0.0000    -0.0000    -0.0000 </r>
      <r>     7.8514     1.1264     1.1264     1.1264     0.0000    -0.0000    -0.0000 </r>
      <r>     7.8952     1.1562     1.1562     1.1562     0.0000    -0.0000    -0.0000 </r>
      <r>     7.9391     1.0799     1.0799     1.0799     0.0000    -0.0000    -0.0000 </r>
      <r>     7.9830     0.9317     0.9317     0.9317     0.0000    -0.0000     0.0000 </r>
      <r>     8.0268     0.7692     0.7692     0.7692     0.0000    -0.0000     0.0000 </r>
      <r>     8.0707     0.6344     0.6344     0.6344     0.0000    -0.0000     0.0000 </r>
      <r>     8.1145     0.5402     0.5402     0.5402     0.0000    -0.0000     0.0000 </r>
      <r>     8.1584     0.4814     0.4814     0.4814     0.0000    -0.0000     0.0000 </r>
      <r>     8.2023     0.4482     0.4482     0.4482     0.0000    -0.0000     0.0000 </r>
      <r>     8.2461     0.4333     0.4333     0.4333     0.0000    -0.0000     0.0000 </r>
      <r>     8.2900     0.4329     0.4329     0.4329     0.0000    -0.0000     0.0000 </r>
      <r>     8.3339     0.4463     0.4463     0.4463     0.0000    -0.0000     0.0000 </r>
      <r>     8.3777     0.4759     0.4759     0.4759     0.0000    -0.0000     0.0000 </r>
      <r>     8.4216     0.5274     0.5274     0.5274     0.0000    -0.0000     0.0000 </r>
      <r>     8.4654     0.6118     0.6118     0.6118     0.0000    -0.0000     0.0000 </r>
      <r>     8.5093     0.7474     0.7474     0.7474     0.0000    -0.0000     0.0000 </r>
      <r>     8.5532     0.9584     0.9584     0.9584     0.0000    -0.0000     0.0000 </r>
      <r>     8.5970     1.2618     1.2618     1.2618     0.0000    -0.0000     0.0000 </r>
      <r>     8.6409     1.6386     1.6386     1.6386     0.0000    -0.0000     0.0000 </r>
      <r>     8.6848     2.0070     2.0070     2.0070     0.0000    -0.0000     0.0000 </r>
      <r>     8.7286     2.2406     2.2406     2.2406     0.0000    -0.0000     0.0000 </r>
      <r>     8.7725     2.2459     2.2459     2.2459    -0.0000    -0.0000     0.0000 </r>
      <r>     8.8163     2.0299     2.0299     2.0299    -0.0000    -0.0000     0.0000 </r>
      <r>     8.8602     1.6874     1.6874     1.6874    -0.0000    -0.0000     0.0000 </r>
      <r>     8.9041     1.3280     1.3280     1.3280    -0.0000    -0.0000    -0.0000 </r>
      <r>     8.9479     1.0224     1.0224     1.0224    -0.0000    -0.0000     0.0000 </r>
      <r>     8.9918     0.7943     0.7943     0.7943     0.0000    -0.0000     0.0000 </r>
      <r>     9.0357     0.6380     0.6380     0.6380     0.0000    -0.0000     0.0000 </r>
      <r>     9.0795     0.5362     0.5362     0.5362     0.0000    -0.0000     0.0000 </r>
      <r>     9.1234     0.4722     0.4722     0.4722     0.0000    -0.0000     0.0000 </r>
      <r>     9.1672     0.4335     0.4335     0.4335     0.0000    -0.0000     0.0000 </r>
      <r>     9.2111     0.4125     0.4125     0.4125     0.0000    -0.0000     0.0000 </r>
      <r>     9.2550     0.4053     0.4053     0.4053     0.0000    -0.0000     0.0000 </r>
      <r>     9.2988     0.4103     0.4103     0.4103     0.0000    -0.0000     0.0000 </r>
      <r>     9.3427     0.4283     0.4283     0.4283     0.0000    -0.0000     0.0000 </r>
      <r>     9.3865     0.4621     0.4621     0.4621     0.0000    -0.0000     0.0000 </r>
      <r>     9.4304     0.5174     0.5174     0.5174     0.0000    -0.0000     0.0000 </r>
      <r>     9.4743     0.6054     0.6054     0.6054     0.0000    -0.0000     0.0000 </r>
      <r>     9.5181     0.7447     0.7447     0.7447     0.0000    -0.0000     0.0000 </r>
      <r>     9.5620     0.9634     0.9634     0.9634     0.0000    -0.0000     0.0000 </r>
      <r>     9.6059     1.2915     1.2915     1.2915     0.0000    -0.0000     0.0000 </r>
      <r>     9.6497     1.7325     1.7325     1.7325     0.0000    -0.0000     0.0000 </r>
      <r>     9.6936     2.2193     2.2193     2.2193     0.0000    -0.0000     0.0000 </r>
      <r>     9.7374     2.5999     2.5999     2.5999     0.0000    -0.0000     0.0000 </r>
      <r>     9.7813     2.7102     2.7102     2.7102     0.0000    -0.0000     0.0000 </r>
      <r>     9.8252     2.4974     2.4974     2.4974     0.0000    -0.0000     0.0000 </r>
      <r>     9.8690     2.0652     2.0652     2.0652     0.0000    -0.0000     0.0000 </r>
      <r>     9.9129     1.5874     1.5874     1.5874     0.0000    -0.0000     0.0000 </r>
      <r>     9.9568     1.1899     1.1899     1.1899     0.0000    -0.0000     0.0000 </r>
      <r>    10.0006     0.9112     0.9112     0.9112     0.0000    -0.0000     0.0000 </r>
      <r>    10.0445     0.7343     0.7343     0.7343     0.0000    -0.0000     0.0000 </r>
      <r>    10.0883     0.6286     0.6286     0.6286     0.0000    -0.0000     0.0000 </r>
      <r>    10.1322     0.5703     0.5703     0.5703     0.0000    -0.0000     0.0000 </r>
      <r>    10.1761     0.5455     0.5455     0.5455     0.0000    -0.0000     0.0000 </r>
      <r>    10.2199     0.5479     0.5479     0.5479     0.0000    -0.0000     0.0000 </r>
      <r>    10.2638     0.5776     0.5776     0.5776     0.0000    -0.0000     0.0000 </r>
      <r>    10.3077     0.6403     0.6403     0.6403     0.0000    -0.0000     0.0000 </r>
      <r>    10.3515     0.7498     0.7498     0.7498     0.0000    -0.0000     0.0000 </r>
      <r>    10.3954     0.9291     0.9291     0.9291     0.0000    -0.0000     0.0000 </r>
      <r>    10.4392     1.2089     1.2089     1.2089     0.0000    -0.0000     0.0000 </r>
      <r>    10.4831     1.6084     1.6084     1.6084     0.0000    -0.0000     0.0000 </r>
      <r>    10.5270     2.0964     2.0964     2.0964     0.0000    -0.0000     0.0000 </r>
      <r>    10.5708     2.5563     2.5563     2.5563     0.0000    -0.0000     0.0000 </r>
      <r>    10.6147     2.8165     2.8165     2.8165     0.0000    -0.0000     0.0000 </r>
      <r>    10.6586     2.7627     2.7627     2.7627     0.0000    -0.0000     0.0000 </r>
      <r>    10.7024     2.4334     2.4334     2.4334    -0.0000    -0.0000     0.0000 </r>
      <r>    10.7463     1.9905     1.9905     1.9905    -0.0000    -0.0000     0.0000 </r>
      <r>    10.7901     1.5994     1.5994     1.5994    -0.0000    -0.0000     0.0000 </r>
      <r>    10.8340     1.3487     1.3487     1.3487    -0.0000    -0.0000     0.0000 </r>
      <r>    10.8779     1.2577     1.2577     1.2577    -0.0000    -0.0000     0.0000 </r>
      <r>    10.9217     1.3154     1.3154     1.3154    -0.0000    -0.0000     0.0000 </r>
      <r>    10.9656     1.4951     1.4951     1.4951    -0.0000    -0.0000     0.0000 </r>
      <r>    11.0095     1.7386     1.7386     1.7386    -0.0000     0.0000     0.0000 </r>
      <r>    11.0533     1.9494     1.9494     1.9494    -0.0000     0.0000    -0.0000 </r>
      <r>    11.0972     2.0336     2.0336     2.0336    -0.0000     0.0000    -0.0000 </r>
      <r>    11.1410     1.9682     1.9682     1.9682    -0.0000     0.0000    -0.0000 </r>
      <r>    11.1849     1.8216     1.8216     1.8216    -0.0000     0.0000    -0.0000 </r>
      <r>    11.2288     1.6929     1.6929     1.6929    -0.0000     0.0000    -0.0000 </r>
      <r>    11.2726     1.6345     1.6345     1.6345    -0.0000     0.0000    -0.0000 </r>
      <r>    11.3165     1.6323     1.6323     1.6323    -0.0000     0.0000    -0.0000 </r>
      <r>    11.3604     1.6488     1.6488     1.6488    -0.0000     0.0000    -0.0000 </r>
      <r>    11.4042     1.6794     1.6794     1.6794    -0.0000     0.0000    -0.0000 </r>
      <r>    11.4481     1.7745     1.7745     1.7745    -0.0000     0.0000    -0.0000 </r>
      <r>    11.4919     2.0209     2.0209     2.0209    -0.0000     0.0000    -0.0000 </r>
      <r>    11.5358     2.5123     2.5123     2.5123    -0.0000     0.0000    -0.0000 </r>
      <r>    11.5797     3.3077     3.3077     3.3077    -0.0000     0.0000    -0.0000 </r>
      <r>    11.6235     4.3529     4.3529     4.3529    -0.0000     0.0000    -0.0000 </r>
      <r>    11.6674     5.3972     5.3972     5.3972    -0.0000     0.0000    -0.0000 </r>
      <r>    11.7113     6.0365     6.0365     6.0365    -0.0000     0.0000     0.0000 </r>
      <r>    11.7551     5.9582     5.9582     5.9582     0.0000    -0.0000     0.0000 </r>
      <r>    11.7990     5.1908     5.1908     5.1908     0.0000    -0.0000     0.0000 </r>
      <r>    11.8428     4.0765     4.0765     4.0765     0.0000    -0.0000     0.0000 </r>
      <r>    11.8867     2.9993     2.9993     2.9993     0.0000    -0.0000     0.0000 </r>
      <r>    11.9306     2.1673     2.1673     2.1673     0.0000    -0.0000     0.0000 </r>
      <r>    11.9744     1.6035     1.6035     1.6035     0.0000    -0.0000     0.0000 </r>
      <r>    12.0183     1.2458     1.2458     1.2458     0.0000    -0.0000     0.0000 </r>
      <r>    12.0622     1.0266     1.0266     1.0266     0.0000    -0.0000     0.0000 </r>
      <r>    12.1060     0.8998     0.8998     0.8998     0.0000    -0.0000     0.0000 </r>
      <r>    12.1499     0.8416     0.8416     0.8416     0.0000    -0.0000     0.0000 </r>
      <r>    12.1937     0.8437     0.8437     0.8437     0.0000    -0.0000     0.0000 </r>
      <r>    12.2376     0.9056     0.9056     0.9056     0.0000    -0.0000     0.0000 </r>
      <r>    12.2815     1.0247     1.0247     1.0247     0.0000    -0.0000     0.0000 </r>
      <r>    12.3253     1.1854     1.1854     1.1854     0.0000    -0.0000     0.0000 </r>
      <r>    12.3692     1.3600     1.3600     1.3600     0.0000    -0.0000     0.0000 </r>
      <r>    12.4131     1.5308     1.5308     1.5308     0.0000    -0.0000     0.0000 </r>
      <r>    12.4569     1.7094     1.7094     1.7094     0.0000    -0.0000     0.0000 </r>
      <r>    12.5008     1.9161     1.9161     1.9161     0.0000    -0.0000     0.0000 </r>
      <r>    12.5446     2.1267     2.1267     2.1267     0.0000    -0.0000     0.0000 </r>
      <r>    12.5885     2.2571     2.2571     2.2571     0.0000    -0.0000     0.0000 </r>
      <r>    12.6324     2.2282     2.2282     2.2282     0.0000    -0.0000     0.0000 </r>
      <r>    12.6762     2.0441     2.0441     2.0441     0.0000    -0.0000     0.0000 </r>
      <r>    12.7201     1.7872     1.7872     1.7872     0.0000    -0.0000     0.0000 </r>
      <r>    12.7640     1.5368     1.5368     1.5368     0.0000    -0.0000     0.0000 </r>
      <r>    12.8078     1.3150     1.3150     1.3150     0.0000    -0.0000     0.0000 </r>
      <r>    12.8517     1.1078     1.1078     1.1078     0.0000    -0.0000     0.0000 </r>
      <r>    12.8955     0.9090     0.9090     0.9090     0.0000    -0.0000     0.0000 </r>
      <r>    12.9394     0.7318     0.7318     0.7318     0.0000    -0.0000     0.0000 </r>
      <r>    12.9833     0.5913     0.5913     0.5913     0.0000    -0.0000     0.0000 </r>
      <r>    13.0271     0.4907     0.4907     0.4907     0.0000    -0.0000     0.0000 </r>
      <r>    13.0710     0.4233     0.4233     0.4233     0.0000    -0.0000     0.0000 </r>
      <r>    13.1149     0.3795     0.3795     0.3795     0.0000    -0.0000     0.0000 </r>
      <r>    13.1587     0.3519     0.3519     0.3519     0.0000    -0.0000     0.0000 </r>
      <r>    13.2026     0.3357     0.3357     0.3357     0.0000    -0.0000     0.0000 </r>
      <r>    13.2464     0.3282     0.3282     0.3282     0.0000    -0.0000     0.0000 </r>
      <r>    13.2903     0.3281     0.3281     0.3281     0.0000    -0.0000     0.0000 </r>
      <r>    13.3342     0.3352     0.3352     0.3352     0.0000    -0.0000     0.0000 </r>
      <r>    13.3780     0.3499     0.3499     0.3499     0.0000    -0.0000     0.0000 </r>
      <r>    13.4219     0.3735     0.3735     0.3735     0.0000    -0.0000     0.0000 </r>
      <r>    13.4658     0.4088     0.4088     0.4088     0.0000    -0.0000     0.0000 </r>
      <r>    13.5096     0.4602     0.4602     0.4602     0.0000    -0.0000     0.0000 </r>
      <r>    13.5535     0.5352     0.5352     0.5352     0.0000    -0.0000     0.0000 </r>
      <r>    13.5973     0.6471     0.6471     0.6471     0.0000    -0.0000     0.0000 </r>
      <r>    13.6412     0.8180     0.8180     0.8180     0.0000    -0.0000     0.0000 </r>
      <r>    13.6851     1.0823     1.0823     1.0823     0.0000    -0.0000     0.0000 </r>
      <r>    13.7289     1.4802     1.4802     1.4802     0.0000    -0.0000     0.0000 </r>
      <r>    13.7728     2.0286     2.0286     2.0286     0.0000    -0.0000     0.0000 </r>
      <r>    13.8167     2.6654     2.6654     2.6654     0.0000    -0.0000     0.0000 </r>
      <r>    13.8605     3.2167     3.2167     3.2167     0.0000    -0.0000     0.0000 </r>
      <r>    13.9044     3.4649     3.4649     3.4649     0.0000    -0.0000     0.0000 </r>
      <r>    13.9482     3.3040     3.3040     3.3040     0.0000    -0.0000     0.0000 </r>
      <r>    13.9921     2.8283     2.8283     2.8283     0.0000    -0.0000     0.0000 </r>
      <r>    14.0360     2.2515     2.2515     2.2515     0.0000    -0.0000     0.0000 </r>
      <r>    14.0798     1.7525     1.7525     1.7525     0.0000    -0.0000     0.0000 </r>
      <r>    14.1237     1.4062     1.4062     1.4062     0.0000    -0.0000     0.0000 </r>
      <r>    14.1675     1.2148     1.2148     1.2148     0.0000    -0.0000     0.0000 </r>
      <r>    14.2114     1.1554     1.1554     1.1554     0.0000    -0.0000     0.0000 </r>
      <r>    14.2553     1.1950     1.1950     1.1950     0.0000    -0.0000     0.0000 </r>
      <r>    14.2991     1.2827     1.2827     1.2827     0.0000    -0.0000     0.0000 </r>
      <r>    14.3430     1.3532     1.3532     1.3532     0.0000    -0.0000     0.0000 </r>
      <r>    14.3869     1.3576     1.3576     1.3576     0.0000    -0.0000     0.0000 </r>
      <r>    14.4307     1.2995     1.2995     1.2995     0.0000    -0.0000     0.0000 </r>
      <r>    14.4746     1.2327     1.2327     1.2327     0.0000    -0.0000     0.0000 </r>
      <r>    14.5184     1.2224     1.2224     1.2224     0.0000    -0.0000     0.0000 </r>
      <r>    14.5623     1.3026     1.3026     1.3026     0.0000    -0.0000     0.0000 </r>
      <r>    14.6062     1.4577     1.4577     1.4577     0.0000    -0.0000     0.0000 </r>
      <r>    14.6500     1.6336     1.6336     1.6336     0.0000    -0.0000     0.0000 </r>
      <r>    14.6939     1.7713     1.7713     1.7713     0.0000     0.0000     0.0000 </r>
      <r>    14.7378     1.8430     1.8430     1.8430     0.0000     0.0000     0.0000 </r>
      <r>    14.7816     1.8568     1.8568     1.8568     0.0000     0.0000     0.0000 </r>
      <r>    14.8255     1.8380     1.8380     1.8380     0.0000     0.0000     0.0000 </r>
      <r>    14.8693     1.8180     1.8180     1.8180     0.0000     0.0000     0.0000 </r>
      <r>    14.9132     1.8331     1.8331     1.8331     0.0000     0.0000     0.0000 </r>
      <r>    14.9571     1.9057     1.9057     1.9057     0.0000     0.0000     0.0000 </r>
      <r>    15.0009     2.0134     2.0134     2.0134     0.0000     0.0000     0.0000 </r>
      <r>    15.0448     2.0912     2.0912     2.0912     0.0000     0.0000     0.0000 </r>
      <r>    15.0887     2.0879     2.0879     2.0879     0.0000     0.0000     0.0000 </r>
      <r>    15.1325     2.0263     2.0263     2.0263     0.0000     0.0000     0.0000 </r>
      <r>    15.1764     2.0003     2.0003     2.0003    -0.0000     0.0000    -0.0000 </r>
      <r>    15.2202     2.1070     2.1070     2.1070    -0.0000     0.0000    -0.0000 </r>
      <r>    15.2641     2.3764     2.3764     2.3764    -0.0000     0.0000    -0.0000 </r>
      <r>    15.3080     2.7403     2.7403     2.7403    -0.0000     0.0000    -0.0000 </r>
      <r>    15.3518     3.0587     3.0587     3.0587    -0.0000     0.0000    -0.0000 </r>
      <r>    15.3957     3.1978     3.1978     3.1978    -0.0000     0.0000    -0.0000 </r>
      <r>    15.4396     3.1174     3.1174     3.1174    -0.0000     0.0000    -0.0000 </r>
      <r>    15.4834     2.9003     2.9003     2.9003    -0.0000     0.0000    -0.0000 </r>
      <r>    15.5273     2.7036     2.7036     2.7036    -0.0000     0.0000    -0.0000 </r>
      <r>    15.5711     2.6687     2.6687     2.6687    -0.0000     0.0000    -0.0000 </r>
      <r>    15.6150     2.8417     2.8417     2.8417    -0.0000     0.0000    -0.0000 </r>
      <r>    15.6589     3.1434     3.1434     3.1434    -0.0000     0.0000     0.0000 </r>
      <r>    15.7027     3.4124     3.4124     3.4124    -0.0000     0.0000     0.0000 </r>
      <r>    15.7466     3.5043     3.5043     3.5043    -0.0000     0.0000     0.0000 </r>
      <r>    15.7905     3.3684     3.3684     3.3684    -0.0000     0.0000     0.0000 </r>
      <r>    15.8343     3.0383     3.0383     3.0383    -0.0000     0.0000    -0.0000 </r>
      <r>    15.8782     2.5824     2.5824     2.5824    -0.0000     0.0000    -0.0000 </r>
      <r>    15.9220     2.0807     2.0807     2.0807    -0.0000     0.0000    -0.0000 </r>
      <r>    15.9659     1.6142     1.6142     1.6142    -0.0000     0.0000    -0.0000 </r>
      <r>    16.0098     1.2399     1.2399     1.2399    -0.0000     0.0000    -0.0000 </r>
      <r>    16.0536     0.9731     0.9731     0.9731    -0.0000     0.0000    -0.0000 </r>
      <r>    16.0975     0.7981     0.7981     0.7981    -0.0000     0.0000    -0.0000 </r>
      <r>    16.1414     0.6899     0.6899     0.6899    -0.0000     0.0000    -0.0000 </r>
      <r>    16.1852     0.6282     0.6282     0.6282    -0.0000     0.0000    -0.0000 </r>
      <r>    16.2291     0.6006     0.6006     0.6006    -0.0000     0.0000    -0.0000 </r>
      <r>    16.2729     0.6017     0.6017     0.6017    -0.0000     0.0000    -0.0000 </r>
      <r>    16.3168     0.6317     0.6317     0.6317    -0.0000     0.0000    -0.0000 </r>
      <r>    16.3607     0.6967     0.6967     0.6967    -0.0000     0.0000    -0.0000 </r>
      <r>    16.4045     0.8105     0.8105     0.8105    -0.0000    -0.0000     0.0000 </r>
      <r>    16.4484     0.9982     0.9982     0.9982    -0.0000    -0.0000     0.0000 </r>
      <r>    16.4923     1.2977     1.2977     1.2977    -0.0000    -0.0000     0.0000 </r>
      <r>    16.5361     1.7498     1.7498     1.7498    -0.0000    -0.0000     0.0000 </r>
      <r>    16.5800     2.3599     2.3599     2.3599    -0.0000    -0.0000     0.0000 </r>
      <r>    16.6238     3.0397     3.0397     3.0397    -0.0000    -0.0000     0.0000 </r>
      <r>    16.6677     3.5928     3.5928     3.5928    -0.0000    -0.0000     0.0000 </r>
      <r>    16.7116     3.8147     3.8147     3.8147    -0.0000    -0.0000     0.0000 </r>
      <r>    16.7554     3.6541     3.6541     3.6541    -0.0000     0.0000     0.0000 </r>
      <r>    16.7993     3.2577     3.2577     3.2577    -0.0000    -0.0000     0.0000 </r>
      <r>    16.8432     2.8370     2.8370     2.8370    -0.0000    -0.0000     0.0000 </r>
      <r>    16.8870     2.5081     2.5081     2.5081    -0.0000    -0.0000     0.0000 </r>
      <r>    16.9309     2.2656     2.2656     2.2656    -0.0000    -0.0000    -0.0000 </r>
      <r>    16.9747     2.0569     2.0569     2.0569    -0.0000     0.0000    -0.0000 </r>
      <r>    17.0186     1.8428     1.8428     1.8428    -0.0000     0.0000    -0.0000 </r>
      <r>    17.0625     1.6058     1.6058     1.6058    -0.0000     0.0000    -0.0000 </r>
      <r>    17.1063     1.3467     1.3467     1.3467    -0.0000     0.0000    -0.0000 </r>
      <r>    17.1502     1.0867     1.0867     1.0867    -0.0000     0.0000    -0.0000 </r>
      <r>    17.1941     0.8570     0.8570     0.8570    -0.0000     0.0000    -0.0000 </r>
      <r>    17.2379     0.6785     0.6785     0.6785    -0.0000     0.0000    -0.0000 </r>
      <r>    17.2818     0.5529     0.5529     0.5529    -0.0000     0.0000    -0.0000 </r>
      <r>    17.3256     0.4701     0.4701     0.4701    -0.0000     0.0000    -0.0000 </r>
      <r>    17.3695     0.4180     0.4180     0.4180    -0.0000     0.0000    -0.0000 </r>
      <r>    17.4134     0.3881     0.3881     0.3881    -0.0000     0.0000    -0.0000 </r>
      <r>    17.4572     0.3761     0.3761     0.3761    -0.0000     0.0000    -0.0000 </r>
      <r>    17.5011     0.3816     0.3816     0.3816    -0.0000     0.0000    -0.0000 </r>
      <r>    17.5450     0.4076     0.4076     0.4076    -0.0000     0.0000     0.0000 </r>
      <r>    17.5888     0.4612     0.4612     0.4612    -0.0000     0.0000     0.0000 </r>
      <r>    17.6327     0.5506     0.5506     0.5506    -0.0000     0.0000     0.0000 </r>
      <r>    17.6765     0.6777     0.6777     0.6777    -0.0000     0.0000     0.0000 </r>
      <r>    17.7204     0.8248     0.8248     0.8248    -0.0000     0.0000     0.0000 </r>
      <r>    17.7643     0.9486     0.9486     0.9486    -0.0000     0.0000     0.0000 </r>
      <r>    17.8081     0.9994     0.9994     0.9994    -0.0000     0.0000     0.0000 </r>
      <r>    17.8520     0.9584     0.9584     0.9584    -0.0000     0.0000     0.0000 </r>
      <r>    17.8959     0.8545     0.8545     0.8545    -0.0000     0.0000     0.0000 </r>
      <r>    17.9397     0.7416     0.7416     0.7416    -0.0000     0.0000     0.0000 </r>
      <r>    17.9836     0.6634     0.6634     0.6634    -0.0000     0.0000     0.0000 </r>
      <r>    18.0274     0.6400     0.6400     0.6400    -0.0000     0.0000    -0.0000 </r>
      <r>    18.0713     0.6783     0.6783     0.6783    -0.0000     0.0000    -0.0000 </r>
      <r>    18.1152     0.7881     0.7881     0.7881    -0.0000     0.0000    -0.0000 </r>
      <r>    18.1590     0.9917     0.9917     0.9917    -0.0000     0.0000    -0.0000 </r>
      <r>    18.2029     1.3207     1.3207     1.3207    -0.0000     0.0000    -0.0000 </r>
      <r>    18.2468     1.7923     1.7923     1.7923    -0.0000     0.0000    -0.0000 </r>
      <r>    18.2906     2.3607     2.3607     2.3607    -0.0000     0.0000    -0.0000 </r>
      <r>    18.3345     2.8830     2.8830     2.8830    -0.0000     0.0000    -0.0000 </r>
      <r>    18.3783     3.1654     3.1654     3.1654    -0.0000     0.0000    -0.0000 </r>
      <r>    18.4222     3.0912     3.0912     3.0912    -0.0000     0.0000     0.0000 </r>
      <r>    18.4661     2.7140     2.7140     2.7140    -0.0000     0.0000     0.0000 </r>
      <r>    18.5099     2.2100     2.2100     2.2100    -0.0000     0.0000     0.0000 </r>
      <r>    18.5538     1.7504     1.7504     1.7504    -0.0000     0.0000     0.0000 </r>
      <r>    18.5976     1.4154     1.4154     1.4154    -0.0000     0.0000    -0.0000 </r>
      <r>    18.6415     1.1946     1.1946     1.1946    -0.0000     0.0000    -0.0000 </r>
      <r>    18.6854     1.0338     1.0338     1.0338    -0.0000     0.0000    -0.0000 </r>
      <r>    18.7292     0.8867     0.8867     0.8867    -0.0000     0.0000    -0.0000 </r>
      <r>    18.7731     0.7399     0.7399     0.7399    -0.0000     0.0000    -0.0000 </r>
      <r>    18.8170     0.6057     0.6057     0.6057    -0.0000     0.0000    -0.0000 </r>
      <r>    18.8608     0.4992     0.4992     0.4992    -0.0000     0.0000    -0.0000 </r>
      <r>    18.9047     0.4256     0.4256     0.4256    -0.0000     0.0000    -0.0000 </r>
      <r>    18.9485     0.3816     0.3816     0.3816    -0.0000     0.0000    -0.0000 </r>
      <r>    18.9924     0.3620     0.3620     0.3620    -0.0000     0.0000    -0.0000 </r>
      <r>    19.0363     0.3640     0.3640     0.3640    -0.0000     0.0000    -0.0000 </r>
      <r>    19.0801     0.3883     0.3883     0.3883    -0.0000     0.0000    -0.0000 </r>
      <r>    19.1240     0.4377     0.4377     0.4377    -0.0000     0.0000    -0.0000 </r>
      <r>    19.1679     0.5158     0.5158     0.5158    -0.0000     0.0000    -0.0000 </r>
      <r>    19.2117     0.6263     0.6263     0.6263    -0.0000     0.0000    -0.0000 </r>
      <r>    19.2556     0.7725     0.7725     0.7725    -0.0000     0.0000    -0.0000 </r>
      <r>    19.2994     0.9498     0.9498     0.9498    -0.0000     0.0000    -0.0000 </r>
      <r>    19.3433     1.1299     1.1299     1.1299    -0.0000     0.0000    -0.0000 </r>
      <r>    19.3872     1.2550     1.2550     1.2550    -0.0000     0.0000    -0.0000 </r>
      <r>    19.4310     1.2683     1.2683     1.2683     0.0000     0.0000    -0.0000 </r>
      <r>    19.4749     1.1623     1.1623     1.1623     0.0000     0.0000    -0.0000 </r>
      <r>    19.5188     0.9900     0.9900     0.9900     0.0000    -0.0000    -0.0000 </r>
      <r>    19.5626     0.8258     0.8258     0.8258     0.0000    -0.0000    -0.0000 </r>
      <r>    19.6065     0.7227     0.7227     0.7227     0.0000    -0.0000    -0.0000 </r>
      <r>    19.6503     0.7034     0.7034     0.7034     0.0000    -0.0000    -0.0000 </r>
      <r>    19.6942     0.7762     0.7762     0.7762     0.0000    -0.0000    -0.0000 </r>
      <r>    19.7381     0.9430     0.9430     0.9430     0.0000    -0.0000    -0.0000 </r>
      <r>    19.7819     1.1851     1.1851     1.1851     0.0000     0.0000    -0.0000 </r>
      <r>    19.8258     1.4392     1.4392     1.4392     0.0000     0.0000    -0.0000 </r>
      <r>    19.8697     1.6025     1.6025     1.6025     0.0000     0.0000    -0.0000 </r>
      <r>    19.9135     1.5907     1.5907     1.5907     0.0000     0.0000    -0.0000 </r>
      <r>    19.9574     1.4032     1.4032     1.4032     0.0000     0.0000    -0.0000 </r>
      <r>    20.0012     1.1225     1.1225     1.1225     0.0000     0.0000    -0.0000 </r>
      <r>    20.0451     0.8476     0.8476     0.8476     0.0000     0.0000    -0.0000 </r>
      <r>    20.0890     0.6356     0.6356     0.6356     0.0000     0.0000    -0.0000 </r>
      <r>    20.1328     0.4956     0.4956     0.4956     0.0000     0.0000    -0.0000 </r>
      <r>    20.1767     0.4127     0.4127     0.4127     0.0000     0.0000    -0.0000 </r>
      <r>    20.2206     0.3687     0.3687     0.3687     0.0000     0.0000    -0.0000 </r>
      <r>    20.2644     0.3510     0.3510     0.3510     0.0000     0.0000    -0.0000 </r>
      <r>    20.3083     0.3541     0.3541     0.3541     0.0000     0.0000    -0.0000 </r>
      <r>    20.3521     0.3777     0.3777     0.3777     0.0000     0.0000    -0.0000 </r>
      <r>    20.3960     0.4190     0.4190     0.4190     0.0000     0.0000    -0.0000 </r>
      <r>    20.4399     0.4644     0.4644     0.4644     0.0000     0.0000    -0.0000 </r>
      <r>    20.4837     0.4902     0.4902     0.4902     0.0000     0.0000    -0.0000 </r>
      <r>    20.5276     0.4771     0.4771     0.4771     0.0000     0.0000    -0.0000 </r>
      <r>    20.5715     0.4256     0.4256     0.4256     0.0000     0.0000    -0.0000 </r>
      <r>    20.6153     0.3553     0.3553     0.3553     0.0000     0.0000    -0.0000 </r>
      <r>    20.6592     0.2887     0.2887     0.2887     0.0000     0.0000    -0.0000 </r>
      <r>    20.7030     0.2383     0.2383     0.2383     0.0000     0.0000    -0.0000 </r>
      <r>    20.7469     0.2056     0.2056     0.2056     0.0000     0.0000    -0.0000 </r>
      <r>    20.7908     0.1869     0.1869     0.1869     0.0000    -0.0000    -0.0000 </r>
      <r>    20.8346     0.1784     0.1784     0.1784     0.0000    -0.0000    -0.0000 </r>
      <r>    20.8785     0.1777     0.1777     0.1777     0.0000    -0.0000    -0.0000 </r>
      <r>    20.9224     0.1841     0.1841     0.1841     0.0000    -0.0000    -0.0000 </r>
      <r>    20.9662     0.1983     0.1983     0.1983     0.0000    -0.0000    -0.0000 </r>
      <r>    21.0101     0.2230     0.2230     0.2230    -0.0000    -0.0000    -0.0000 </r>
      <r>    21.0539     0.2625     0.2625     0.2625    -0.0000    -0.0000    -0.0000 </r>
      <r>    21.0978     0.3237     0.3237     0.3237    -0.0000    -0.0000    -0.0000 </r>
      <r>    21.1417     0.4155     0.4155     0.4155    -0.0000    -0.0000    -0.0000 </r>
      <r>    21.1855     0.5451     0.5451     0.5451    -0.0000    -0.0000    -0.0000 </r>
      <r>    21.2294     0.7089     0.7089     0.7089    -0.0000    -0.0000    -0.0000 </r>
      <r>    21.2733     0.8801     0.8801     0.8801    -0.0000    -0.0000    -0.0000 </r>
      <r>    21.3171     1.0070     1.0070     1.0070    -0.0000    -0.0000    -0.0000 </r>
      <r>    21.3610     1.0407     1.0407     1.0407    -0.0000    -0.0000    -0.0000 </r>
      <r>    21.4048     0.9739     0.9739     0.9739    -0.0000    -0.0000    -0.0000 </r>
      <r>    21.4487     0.8522     0.8522     0.8522     0.0000    -0.0000     0.0000 </r>
      <r>    21.4926     0.7419     0.7419     0.7419     0.0000     0.0000     0.0000 </r>
      <r>    21.5364     0.6918     0.6918     0.6918     0.0000     0.0000     0.0000 </r>
      <r>    21.5803     0.7180     0.7180     0.7180     0.0000     0.0000     0.0000 </r>
      <r>    21.6242     0.8044     0.8044     0.8044     0.0000     0.0000     0.0000 </r>
      <r>    21.6680     0.9065     0.9065     0.9065     0.0000     0.0000     0.0000 </r>
      <r>    21.7119     0.9688     0.9688     0.9688     0.0000     0.0000     0.0000 </r>
      <r>    21.7557     0.9595     0.9595     0.9595     0.0000     0.0000     0.0000 </r>
      <r>    21.7996     0.8965     0.8965     0.8965     0.0000     0.0000     0.0000 </r>
      <r>    21.8435     0.8346     0.8346     0.8346     0.0000     0.0000     0.0000 </r>
      <r>    21.8873     0.8254     0.8254     0.8254     0.0000     0.0000     0.0000 </r>
      <r>    21.9312     0.8831     0.8831     0.8831     0.0000     0.0000     0.0000 </r>
      <r>    21.9751     0.9754     0.9754     0.9754     0.0000     0.0000     0.0000 </r>
      <r>    22.0189     1.0403     1.0403     1.0403     0.0000     0.0000     0.0000 </r>
      <r>    22.0628     1.0287     1.0287     1.0287     0.0000     0.0000     0.0000 </r>
      <r>    22.1066     0.9416     0.9416     0.9416     0.0000     0.0000     0.0000 </r>
      <r>    22.1505     0.8258     0.8258     0.8258     0.0000     0.0000     0.0000 </r>
      <r>    22.1944     0.7299     0.7299     0.7299     0.0000     0.0000     0.0000 </r>
      <r>    22.2382     0.6679     0.6679     0.6679     0.0000     0.0000     0.0000 </r>
      <r>    22.2821     0.6196     0.6196     0.6196     0.0000     0.0000     0.0000 </r>
      <r>    22.3260     0.5584     0.5584     0.5584     0.0000     0.0000     0.0000 </r>
      <r>    22.3698     0.4765     0.4765     0.4765     0.0000     0.0000     0.0000 </r>
      <r>    22.4137     0.3859     0.3859     0.3859     0.0000     0.0000     0.0000 </r>
      <r>    22.4575     0.3037     0.3037     0.3037     0.0000     0.0000     0.0000 </r>
      <r>    22.5014     0.2389     0.2389     0.2389     0.0000     0.0000     0.0000 </r>
      <r>    22.5453     0.1922     0.1922     0.1922     0.0000     0.0000     0.0000 </r>
      <r>    22.5891     0.1598     0.1598     0.1598     0.0000     0.0000     0.0000 </r>
      <r>    22.6330     0.1373     0.1373     0.1373     0.0000     0.0000     0.0000 </r>
      <r>    22.6769     0.1215     0.1215     0.1215     0.0000     0.0000     0.0000 </r>
      <r>    22.7207     0.1101     0.1101     0.1101     0.0000     0.0000     0.0000 </r>
      <r>    22.7646     0.1017     0.1017     0.1017     0.0000    -0.0000     0.0000 </r>
      <r>    22.8084     0.0955     0.0955     0.0955     0.0000    -0.0000     0.0000 </r>
      <r>    22.8523     0.0908     0.0908     0.0908     0.0000    -0.0000     0.0000 </r>
      <r>    22.8962     0.0874     0.0874     0.0874     0.0000    -0.0000     0.0000 </r>
      <r>    22.9400     0.0849     0.0849     0.0849     0.0000    -0.0000     0.0000 </r>
      <r>    22.9839     0.0833     0.0833     0.0833     0.0000    -0.0000     0.0000 </r>
      <r>    23.0278     0.0825     0.0825     0.0825     0.0000    -0.0000     0.0000 </r>
      <r>    23.0716     0.0823     0.0823     0.0823     0.0000    -0.0000     0.0000 </r>
      <r>    23.1155     0.0828     0.0828     0.0828     0.0000    -0.0000     0.0000 </r>
      <r>    23.1593     0.0840     0.0840     0.0840     0.0000    -0.0000    -0.0000 </r>
      <r>    23.2032     0.0859     0.0859     0.0859     0.0000    -0.0000    -0.0000 </r>
      <r>    23.2471     0.0885     0.0885     0.0885     0.0000    -0.0000    -0.0000 </r>
      <r>    23.2909     0.0921     0.0921     0.0921     0.0000    -0.0000    -0.0000 </r>
      <r>    23.3348     0.0966     0.0966     0.0966     0.0000    -0.0000    -0.0000 </r>
      <r>    23.3786     0.1024     0.1024     0.1024     0.0000    -0.0000    -0.0000 </r>
      <r>    23.4225     0.1098     0.1098     0.1098     0.0000    -0.0000    -0.0000 </r>
      <r>    23.4664     0.1191     0.1191     0.1191     0.0000    -0.0000    -0.0000 </r>
      <r>    23.5102     0.1311     0.1311     0.1311     0.0000    -0.0000    -0.0000 </r>
      <r>    23.5541     0.1466     0.1466     0.1466     0.0000    -0.0000    -0.0000 </r>
      <r>    23.5980     0.1672     0.1672     0.1672     0.0000    -0.0000    -0.0000 </r>
      <r>    23.6418     0.1953     0.1953     0.1953     0.0000    -0.0000    -0.0000 </r>
      <r>    23.6857     0.2349     0.2349     0.2349     0.0000    -0.0000    -0.0000 </r>
      <r>    23.7295     0.2927     0.2927     0.2927     0.0000    -0.0000    -0.0000 </r>
      <r>    23.7734     0.3790     0.3790     0.3790     0.0000    -0.0000    -0.0000 </r>
      <r>    23.8173     0.5062     0.5062     0.5062     0.0000    -0.0000    -0.0000 </r>
      <r>    23.8611     0.6809     0.6809     0.6809     0.0000     0.0000    -0.0000 </r>
      <r>    23.9050     0.8896     0.8896     0.8896     0.0000     0.0000    -0.0000 </r>
      <r>    23.9489     1.0896     1.0896     1.0896     0.0000     0.0000    -0.0000 </r>
      <r>    23.9927     1.2301     1.2301     1.2301     0.0000     0.0000    -0.0000 </r>
[...]
     <r>    12.3280     0.0000     0.0000     0.0000     0.0000     0.0000     0.0000 </r>
     <r>    12.3380     0.0000     0.0000     0.0000     0.0000     0.0000     0.0000 </r>
     <r>    12.3480     0.0000     0.0000     0.0000     0.0000     0.0000     0.0000 </r>
     <r>    12.3580     0.0000     0.0000     0.0000     0.0000     0.0000     0.0000 </r>
     <r>    12.3680     0.0000     0.0000     0.0000     0.0000     0.0000     0.0000 </r>
     <r>    12.3780     0.0000     0.0000     0.0000     0.0000     0.0000     0.0000 </r>
     <r>    12.3880     0.0000     0.0000     0.0000     0.0000     0.0000     0.0000 </r>
     <r>    12.3981     0.0000     0.0000     0.0000     0.0000     0.0000     0.0000 </r>
     <r>    12.4081     0.0000     0.0000     0.0000     0.0000     0.0000     0.0000 </r>
     <r>    12.4181     0.0000     0.0000     0.0000     0.0000     0.0000     0.0000 </r>
     <r>    12.4281     0.0000     0.0000     0.0000     0.0000     0.0000     0.0000 </r>
     <r>    12.4381     0.0000     0.0000     0.0000     0.0000     0.0000     0.0000 </r>
     <r>    12.4481     0.0000     0.0000     0.0000     0.0000     0.0000     0.0000 </r>
     <r>    12.4581     0.0000     0.0000     0.0000     0.0000     0.0000     0.0000 </r>
     <r>    12.4681     0.0000     0.0000     0.0000     0.0000     0.0000     0.0000 </r>
     <r>    12.4781     0.0000     0.0000     0.0000     0.0000     0.0000     0.0000 </r>
     <r>    12.4881     0.0000     0.0000     0.0000     0.0000     0.0000     0.0000 </r>
     <r>    12.4982     0.0000     0.0000     0.0000     0.0000     0.0000     0.0000 </r>
     <r>    12.5082     0.0000     0.0000     0.0000     0.0000     0.0000     0.0000 </r>
     <r>    12.5182     0.0000     0.0000     0.0000     0.0000     0.0000     0.0000 </r>
     <r>    12.5282     0.0000     0.0000     0.0000     0.0000     0.0000     0.0000 </r>
     <r>    12.5382     0.0000     0.0000     0.0000     0.0000     0.0000     0.0000 </r>
     <r>    12.5482     0.0000     0.0000     0.0000     0.0000     0.0000     0.0000 </r>
     <r>    12.5582     0.0000     0.0000     0.0000     0.0000     0.0000     0.0000 </r>
     <r>    12.5682     0.0000     0.0000     0.0000     0.0000     0.0000     0.0000 </r>
     <r>    12.5782     0.0000     0.0000     0.0000     0.0000     0.0000     0.0000 </r>
     <r>    12.5882     0.0000     0.0000     0.0000     0.0000     0.0000     0.0000 </r>
     <r>    12.5983     0.0000     0.0000     0.0000     0.0000     0.0000     0.0000 </r>
     <r>    12.6083     0.0000     0.0000     0.0000     0.0000     0.0000     0.0000 </r>
     <r>    12.6183     0.0000     0.0000     0.0000     0.0000     0.0000     0.0000 </r>
     <r>    12.6283     0.0000     0.0000     0.0000     0.0000     0.0000     0.0000 </r>
     <r>    12.6383     0.0000     0.0000     0.0000     0.0000     0.0000     0.0000 </r>
     <r>    12.6483     0.0000     0.0000     0.0000     0.0000     0.0000     0.0000 </r>
     <r>    12.6583     0.0000     0.0000     0.0000     0.0000     0.0000     0.0000 </r>
     <r>    12.6683     0.0000     0.0000     0.0000     0.0000     0.0000     0.0000 </r>
     <r>    12.6783     0.0000     0.0000     0.0000     0.0000     0.0000     0.0000 </r>
     <r>    12.6883     0.0000     0.0000     0.0000     0.0000     0.0000     0.0000 </r>
     <r>    12.6984     0.0000     0.0000     0.0000     0.0000     0.0000     0.0000 </r>
     <r>    12.7084     0.0000     0.0000     0.0000     0.0000     0.0000     0.0000 </r>
     <r>    12.7184     0.0000     0.0000     0.0000     0.0000     0.0000     0.0000 </r>
     <r>    12.7284     0.0000     0.0000     0.0000     0.0000     0.0000     0.0000 </r>
     <r>    12.7384     0.0000     0.0000     0.0000     0.0000     0.0000     0.0000 </r>
     <r>    12.7484     0.0000     0.0000     0.0000     0.0000     0.0000     0.0000 </r>
     <r>    12.7584     0.0000     0.0000     0.0000     0.0000     0.0000     0.0000 </r>
     <r>    12.7684     0.0000     0.0000     0.0000     0.0000     0.0000     0.0000 </r>
     <r>    12.7784     0.0000     0.0000     0.0000     0.0000     0.0000     0.0000 </r>
     <r>    12.7884     0.0000     0.0000     0.0000     0.0000     0.0000     0.0000 </r>
     <r>    12.7985     0.0000     0.0000     0.0000     0.0000     0.0000     0.0000 </r>
     <r>    12.8085     0.0000     0.0000     0.0000     0.0000     0.0000     0.0000 </r>
     <r>    12.8185     0.0000     0.0000     0.0000     0.0000     0.0000     0.0000 </r>
     <r>    12.8285     0.0000     0.0000     0.0000     0.0000     0.0000     0.0000 </r>
     <r>    12.8385     0.0000     0.0000     0.0000     0.0000     0.0000     0.0000 </r>
     <r>    12.8485     0.0000     0.0000     0.0000     0.0000     0.0000     0.0000 </r>
     <r>    12.8585     0.0000     0.0000     0.0000     0.0000     0.0000     0.0000 </r>
     <r>    12.8685     0.0000     0.0000     0.0000     0.0000     0.0000     0.0000 </r>
     <r>    12.8785     0.0000     0.0000     0.0000     0.0000     0.0000     0.0000 </r>
     <r>    12.8885     0.0000     0.0000     0.0000     0.0000     0.0000     0.0000 </r>
     <r>    12.8986     0.0000     0.0000     0.0000     0.0000     0.0000     0.0000 </r>
     <r>    12.9086     0.0000     0.0000     0.0000     0.0000     0.0000     0.0000 </r>
     <r>    12.9186     0.0000     0.0000     0.0000     0.0000     0.0000     0.0000 </r>
     <r>    12.9286     0.0000     0.0000     0.0000     0.0000     0.0000     0.0000 </r>
     <r>    12.9386     0.0000     0.0000     0.0000     0.0000     0.0000     0.0000 </r>
     <r>    12.9486     0.0000     0.0000     0.0000     0.0000     0.0000     0.0000 </r>
     <r>    12.9586     0.0000     0.0000     0.0000     0.0000     0.0000     0.0000 </r>
     <r>    12.9686     0.0000     0.0000     0.0000     0.0000     0.0000     0.0000 </r>
     <r>    12.9786     0.0000     0.0000     0.0000     0.0000     0.0000     0.0000 </r>
     <r>    12.9886     0.0000     0.0000     0.0000     0.0000     0.0000     0.0000 </r>
     <r>    12.9987     0.0000     0.0000     0.0000     0.0000     0.0000     0.0000 </r>
     <r>    13.0087     0.0000     0.0000     0.0000     0.0000     0.0000     0.0000 </r>
     <r>    13.0187     0.0000     0.0000     0.0000     0.0000     0.0000     0.0000 </r>
     <r>    13.0287     0.0000     0.0000     0.0000     0.0000     0.0000     0.0000 </r>
     <r>    13.0387     0.0000     0.0000     0.0000     0.0000     0.0000     0.0000 </r>
     <r>    13.0487     0.0000     0.0000     0.0000     0.0000     0.0000     0.0000 </r>
     <r>    13.0587     0.0000     0.0000     0.0000     0.0000     0.0000     0.0000 </r>
     <r>    13.0687     0.0000     0.0000     0.0000     0.0000     0.0000     0.0000 </r>
     <r>    13.0787     0.0000     0.0000     0.0000     0.0000     0.0000     0.0000 </r>
     <r>    13.0887     0.0000     0.0000     0.0000     0.0000     0.0000     0.0000 </r>
     <r>    13.0988     0.0000     0.0000     0.0000     0.0000     0.0000     0.0000 </r>
     <r>    13.1088     0.0000     0.0000     0.0000     0.0000     0.0000     0.0000 </r>
     <r>    13.1188     0.0000     0.0000     0.0000     0.0000     0.0000     0.0000 </r>
     <r>    13.1288     0.0000     0.0000     0.0000     0.0000     0.0000     0.0000 </r>
     <r>    13.1388     0.0000     0.0000     0.0000     0.0000     0.0000     0.0000 </r>
     <r>    13.1488     0.0000     0.0000     0.0000     0.0000     0.0000     0.0000 </r>
     <r>    13.1588     0.0000     0.0000     0.0000     0.0000     0.0000     0.0000 </r>
     <r>    13.1688     0.0000     0.0000     0.0000     0.0000     0.0000     0.0000 </r>
     <r>    13.1788     0.0000     0.0000     0.0000     0.0000     0.0000     0.0000 </r>
     <r>    13.1888     0.0000     0.0000     0.0000     0.0000     0.0000     0.0000 </r>
     <r>    13.1989     0.0000     0.0000     0.0000     0.0000     0.0000     0.0000 </r>
     <r>    13.2089     0.0000     0.0000     0.0000     0.0000     0.0000     0.0000 </r>
     <r>    13.2189     0.0000     0.0000     0.0000     0.0000     0.0000     0.0000 </r>
     <r>    13.2289     0.0000     0.0000     0.0000     0.0000     0.0000     0.0000 </r>
     <r>    13.2389     0.0000     0.0000     0.0000     0.0000     0.0000     0.0000 </r>
     <r>    13.2489     0.0000     0.0000     0.0000     0.0000     0.0000     0.0000 </r>
     <r>    13.2589     0.0000     0.0000     0.0000     0.0000     0.0000     0.0000 </r>
     <r>    13.2689     0.0000     0.0000     0.0000     0.0000     0.0000     0.0000 </r>
     <r>    13.2789     0.0000     0.0000     0.0000     0.0000     0.0000     0.0000 </r>
     <r>    13.2889     0.0000     0.0000     0.0000     0.0000     0.0000     0.0000 </r>
     <r>    13.2990     0.0000     0.0000     0.0000     0.0000     0.0000     0.0000 </r>
     <r>    13.3090     0.0000     0.0000     0.0000     0.0000     0.0000     0.0000 </r>
     <r>    13.3190     0.0000     0.0000     0.0000     0.0000     0.0000     0.0000 </r>
     <r>    13.3290     0.0000     0.0000     0.0000     0.0000     0.0000     0.0000 </r>
     <r>    13.3390     0.0000     0.0000     0.0000     0.0000     0.0000     0.0000 </r>
     <r>    13.3490     0.0000     0.0000     0.0000     0.0000     0.0000     0.0000 </r>
     <r>    13.3590     0.0000     0.0000     0.0000     0.0000     0.0000     0.0000 </r>
     <r>    13.3690     0.0000     0.0000     0.0000     0.0000     0.0000     0.0000 </r>
     <r>    13.3790     0.0000     0.0000     0.0000     0.0000     0.0000     0.0000 </r>
     <r>    13.3890     0.0000     0.0000     0.0000     0.0000     0.0000     0.0000 </r>
     <r>    13.3991     0.0000     0.0000     0.0000     0.0000     0.0000     0.0000 </r>
     <r>    13.4091     0.0000     0.0000     0.0000     0.0000     0.0000     0.0000 </r>
     <r>    13.4191     0.0000     0.0000     0.0000     0.0000     0.0000     0.0000 </r>
     <r>    13.4291     0.0000     0.0000     0.0000     0.0000     0.0000     0.0000 </r>
     <r>    13.4391     0.0000     0.0000     0.0000     0.0000     0.0000     0.0000 </r>
     <r>    13.4491     0.0000     0.0000     0.0000     0.0000     0.0000     0.0000 </r>
     <r>    13.4591     0.0000     0.0000     0.0000     0.0000     0.0000     0.0000 </r>
     <r>    13.4691     0.0000     0.0000     0.0000     0.0000     0.0000     0.0000 </r>
     <r>    13.4791     0.0000     0.0000     0.0000     0.0000     0.0000     0.0000 </r>
     <r>    13.4891     0.0000     0.0000     0.0000     0.0000     0.0000     0.0000 </r>
     <r>    13.4992     0.0000     0.0000     0.0000     0.0000     0.0000     0.0000 </r>
     <r>    13.5092     0.0000     0.0000     0.0000     0.0000     0.0000     0.0000 </r>
     <r>    13.5192     0.0000     0.0000     0.0000     0.0000     0.0000     0.0000 </r>
     <r>    13.5292     0.0000     0.0000     0.0000     0.0000     0.0000     0.0000 </r>
     <r>    13.5392     0.0000     0.0000     0.0000     0.0000     0.0000     0.0000 </r>
     <r>    13.5492     0.0000     0.0000     0.0000     0.0000     0.0000     0.0000 </r>
     <r>    13.5592     0.0000     0.0000     0.0000     0.0000     0.0000     0.0000 </r>
     <r>    13.5692     0.0000     0.0000     0.0000     0.0000     0.0000     0.0000 </r>
     <r>    13.5792     0.0000     0.0000     0.0000     0.0000     0.0000     0.0000 </r>
     <r>    13.5892     0.0000     0.0000     0.0000     0.0000     0.0000     0.0000 </r>
     <r>    13.5993     0.0000     0.0000     0.0000     0.0000     0.0000     0.0000 </r>
     <r>    13.6093     0.0000     0.0000     0.0000     0.0000     0.0000     0.0000 </r>
     <r>    13.6193     0.0000     0.0000     0.0000     0.0000     0.0000     0.0000 </r>
     <r>    13.6293     0.0000     0.0000     0.0000     0.0000     0.0000     0.0000 </r>
     <r>    13.6393     0.0000     0.0000     0.0000     0.0000     0.0000     0.0000 </r>
     <r>    13.6493     0.0000     0.0000     0.0000     0.0000     0.0000     0.0000 </r>
     <r>    13.6593     0.0000     0.0000     0.0000     0.0000     0.0000     0.0000 </r>
     <r>    13.6693     0.0000     0.0000     0.0000     0.0000     0.0000     0.0000 </r>
     <r>    13.6793     0.0000     0.0000     0.0000     0.0000     0.0000     0.0000 </r>
     <r>    13.6893     0.0000     0.0000     0.0000     0.0000     0.0000     0.0000 </r>
     <r>    13.6994     0.0000     0.0000     0.0000     0.0000     0.0000     0.0000 </r>
     <r>    13.7094     0.0000     0.0000     0.0000     0.0000     0.0000     0.0000 </r>
     <r>    13.7194     0.0000     0.0000     0.0000     0.0000     0.0000     0.0000 </r>
     <r>    13.7294     0.0000     0.0000     0.0000     0.0000     0.0000     0.0000 </r>
     <r>    13.7394     0.0000     0.0000     0.0000     0.0000     0.0000     0.0000 </r>
     <r>    13.7494     0.0000     0.0000     0.0000     0.0000     0.0000     0.0000 </r>
     <r>    13.7594     0.0000     0.0000     0.0000     0.0000     0.0000     0.0000 </r>
     <r>    13.7694     0.0000     0.0000     0.0000     0.0000     0.0000     0.0000 </r>
     <r>    13.7794     0.0000     0.0000     0.0000     0.0000     0.0000     0.0000 </r>
     <r>    13.7894     0.0000     0.0000     0.0000     0.0000     0.0000     0.0000 </r>
     <r>    13.7995     0.0000     0.0000     0.0000     0.0000     0.0000     0.0000 </r>
     <r>    13.8095     0.0000     0.0000     0.0000     0.0000     0.0000     0.0000 </r>
     <r>    13.8195     0.0000     0.0000     0.0000     0.0000     0.0000     0.0000 </r>
     <r>    13.8295     0.0000     0.0000     0.0000     0.0000     0.0000     0.0000 </r>
     <r>    13.8395     0.0000     0.0000     0.0000     0.0000     0.0000     0.0000 </r>
     <r>    13.8495     0.0000     0.0000     0.0000     0.0000     0.0000     0.0000 </r>
     <r>    13.8595     0.0000     0.0000     0.0000     0.0000     0.0000     0.0000 </r>
     <r>    13.8695     0.0000     0.0000     0.0000     0.0000     0.0000     0.0000 </r>
     <r>    13.8795     0.0000     0.0000     0.0000     0.0000     0.0000     0.0000 </r>
     <r>    13.8895     0.0000     0.0000     0.0000     0.0000     0.0000     0.0000 </r>
     <r>    13.8996     0.0000     0.0000     0.0000     0.0000     0.0000     0.0000 </r>
     <r>    13.9096     0.0000     0.0000     0.0000     0.0000     0.0000     0.0000 </r>
     <r>    13.9196     0.0000     0.0000     0.0000     0.0000     0.0000     0.0000 </r>
     <r>    13.9296     0.0000     0.0000     0.0000     0.0000     0.0000     0.0000 </r>
     <r>    13.9396     0.0000     0.0000     0.0000     0.0000     0.0000     0.0000 </r>
     <r>    13.9496     0.0000     0.0000     0.0000     0.0000     0.0000     0.0000 </r>
     <r>    13.9596     0.0000     0.0000     0.0000     0.0000     0.0000     0.0000 </r>
     <r>    13.9696     0.0000     0.0000     0.0000     0.0000     0.0000     0.0000 </r>
     <r>    13.9796     0.0000     0.0000     0.0000     0.0000     0.0000     0.0000 </r>
     <r>    13.9896     0.0000     0.0000     0.0000     0.0000     0.0000     0.0000 </r>
     <r>    13.9997     0.0000     0.0000     0.0000     0.0000     0.0000     0.0000 </r>
     <r>    14.0097     0.0000     0.0000     0.0000     0.0000     0.0000     0.0000 </r>
     <r>    14.0197     0.0000     0.0000     0.0000     0.0000     0.0000     0.0000 </r>
     <r>    14.0297     0.0000     0.0000     0.0000     0.0000     0.0000     0.0000 </r>
     <r>    14.0397     0.0000     0.0000     0.0000     0.0000     0.0000     0.0000 </r>
     <r>    14.0497     0.0000     0.0000     0.0000     0.0000     0.0000     0.0000 </r>
     <r>    14.0597     0.0000     0.0000     0.0000     0.0000     0.0000     0.0000 </r>
     <r>    14.0697     0.0000     0.0000     0.0000     0.0000     0.0000     0.0000 </r>
     <r>    14.0797     0.0000     0.0000     0.0000     0.0000     0.0000     0.0000 </r>
     <r>    14.0897     0.0000     0.0000     0.0000     0.0000     0.0000     0.0000 </r>
     <r>    14.0998     0.0000     0.0000     0.0000     0.0000     0.0000     0.0000 </r>
     <r>    14.1098     0.0000     0.0000     0.0000     0.0000     0.0000     0.0000 </r>
     <r>    14.1198     0.0000     0.0000     0.0000     0.0000     0.0000     0.0000 </r>
    </set>
   </array>
  </conductivity>
  <dos>
   <i name="efermi">      9.11977429 </i>
   <total>
    <array>
     <dimension dim="1">gridpoints</dimension>
     <dimension dim="2">spin</dimension>
     <field>energy</field>
     <field>total</field>
     <field>integrated</field>
     <set>
      <set comment="spin 1">
       <r>    -1.5152     0.0000     0.0000 </r>
       <r>    -0.6955     0.0000     0.0000 </r>
       <r>     0.1243     0.0002     0.0001 </r>
       <r>     0.9440     0.0380     0.0312 </r>
       <r>     1.7637     0.0000     0.0312 </r>
       <r>     2.5835     0.2098     0.2032 </r>
       <r>     3.4032     0.2281     0.4682 </r>
       <r>     4.2229     0.0000     0.4688 </r>
       <r>     5.0427     0.2764     0.6953 </r>
       <r>     5.8624     1.6953     2.0853 </r>
       <r>     6.6821     2.0668     3.7884 </r>
       <r>     7.5019     2.6173     5.9435 </r>
       <r>     8.3216     2.7091     8.2215 </r>
       <r>     9.1413     2.1376    10.1192 </r>
       <r>     9.9611     0.3635    10.5938 </r>
       <r>    10.7808     0.4574    10.9687 </r>
       <r>    11.6005     0.1104    11.0592 </r>
       <r>    12.4203     0.9189    11.8125 </r>
       <r>    13.2400     0.0000    11.8125 </r>
       <r>    14.0597     0.0000    11.8125 </r>
       <r>    14.8795     0.0001    11.8126 </r>
       <r>    15.6992     0.1524    11.9375 </r>
       <r>    16.5189     0.0000    11.9375 </r>
       <r>    17.3387     0.4574    12.3124 </r>
       <r>    18.1584     0.9149    13.0625 </r>
       <r>    18.9781     0.1144    13.1563 </r>
       <r>    19.7979     0.2287    13.3437 </r>
       <r>    20.6176     0.2281    13.5307 </r>
       <r>    21.4373     0.4574    13.9062 </r>
       <r>    22.2571     0.2573    14.1172 </r>
       <r>    23.0768     0.0000    14.2812 </r>
       <r>    23.8965     0.7477    14.8942 </r>
       <r>    24.7163     0.2281    15.4688 </r>
       <r>    25.5360     0.0000    15.4688 </r>
       <r>    26.3557     0.0000    15.4688 </r>
       <r>    27.1755     0.0000    15.4688 </r>
       <r>    27.9952     0.9149    16.2187 </r>
       <r>    28.8150     0.4574    16.5937 </r>
       <r>    29.6347     0.2285    16.7811 </r>
       <r>    30.4544     0.0000    16.7812 </r>
       <r>    31.2742     0.0012    16.7822 </r>
       <r>    32.0939     0.1546    16.9090 </r>
       <r>    32.9136     0.4733    17.2969 </r>
       <r>    33.7334     0.3242    17.5627 </r>
       <r>    34.5531     0.1548    17.6896 </r>
       <r>    35.3728     0.3025    17.9375 </r>
       <r>    36.1926     0.0000    17.9375 </r>
       <r>    37.0123     0.0759    17.9997 </r>
       <r>    37.8320     0.0000    18.0000 </r>
       <r>    38.6518     0.0000    18.0000 </r>
      </set>
     </set>
    </array>
   </total>
  </dos>
 </calculation>
 <structure name="finalpos" >
  <crystal>
   <varray name="basis" >
    <v>       1.76142189       1.76142189       0.00000000 </v>
    <v>       0.00000000       1.76142189       1.76142189 </v>
    <v>       1.76142189       0.00000000       1.76142189 </v>
   </varray>
   <i name="volume">     10.93000000 </i>
   <varray name="rec_basis" >
    <v>       0.28386158       0.28386158      -0.28386158 </v>
    <v>      -0.28386158       0.28386158       0.28386158 </v>
    <v>       0.28386158      -0.28386158       0.28386158 </v>
   </varray>
  </crystal>
  <varray name="positions" >
   <v>       0.00000000       0.00000000       0.00000000 </v>
  </varray>
 </structure>
</modeling>
