 vasp.5.4.1 05Feb16 (build Feb 10 2016 17:22:43) complex                        
  
 executed on           IFC91_ompi date 2017.04.18  12:11:54
 running on  240 total cores
 distrk:  each k-point on  240 cores,    1 groups
 distr:  one band on NCORES_PER_BAND=  15 cores,   16 groups


--------------------------------------------------------------------------------------------------------


 INCAR:
 POTCAR:    PAW_PBE Cl 06Sep2000                  
 POTCAR:    PAW_PBE In_d 06Sep2000                
 POTCAR:    PAW_PBE Cs_sv 08Apr2002               
 POTCAR:    PAW_PBE Cu_pv 06Sep2000               
 POTCAR:    PAW_PBE Cl 06Sep2000                  
   VRHFIN =Cl: s2p5                                                             
   LEXCH  = PE                                                                  
   EATOM  =   409.7259 eV,   30.1140 Ry                                         
                                                                                
   TITEL  = PAW_PBE Cl 06Sep2000                                                
   LULTRA =        F    use ultrasoft PP ?                                      
   IUNSCR =        1    unscreen: 0-lin 1-nonlin 2-no                           
   RPACOR =    1.500    partial core radius                                     
   POMASS =   35.453; ZVAL   =    7.000    mass and valenz                      
   RCORE  =    1.900    outmost cutoff radius                                   
   RWIGS  =    2.100; RWIGS  =    1.111    wigner-seitz radius (au A)           
   ENMAX  =  262.472; ENMIN  =  196.854 eV                                      
   ICORE  =        2    local potential                                         
   LCOR   =        T    correct aug charges                                     
   LPAW   =        T    paw PP                                                  
   EAUG   =  356.192                                                            
   DEXC   =    0.000                                                            
   RMAX   =    1.945    core radius for proj-oper                               
   RAUG   =    1.300    factor for augmentation sphere                          
   RDEP   =    2.020    radius for radial grids                                 
   RDEPT  =    1.678    core radius for aug-charge                              
                                                                                
   Atomic configuration                                                         
    6 entries                                                                   
     n  l   j            E        occ.                                          
     1  0  0.50     -2751.1850   2.0000                                         
     2  0  0.50      -252.6861   2.0000                                         
     2  1  1.50      -191.6157   6.0000                                         
     3  0  0.50       -20.6916   2.0000                                         
     3  1  0.50        -8.5949   5.0000                                         
     3  2  1.50        -8.1635   0.0000                                         
   Description                                                                  
     l       E           TYP  RCUT    TYP  RCUT                                 
     0    -20.6915656     23  1.900                                             
     0    -22.0521482     23  1.900                                             
     1     -8.5948577     23  1.900                                             
     1     -5.3847331     23  1.900                                             
     2     -8.1634956     23  1.900                                             
  local pseudopotential read in
  partial core-charges read in
  partial kinetic energy density read in
  atomic valenz-charges read in
  non local Contribution for L=           0  read in
    real space projection operators read in
  non local Contribution for L=           0  read in
    real space projection operators read in
  non local Contribution for L=           1  read in
    real space projection operators read in
  non local Contribution for L=           1  read in
    real space projection operators read in
    PAW grid and wavefunctions read in
 
   number of l-projection  operators is LMAX  =           4
   number of lm-projection operators is LMMAX =           8
 
 POTCAR:    PAW_PBE In_d 06Sep2000                
   VRHFIN =In: s2p1                                                             
   LEXCH  = PE                                                                  
   EATOM  =  1576.8302 eV,  115.8937 Ry                                         
                                                                                
   TITEL  = PAW_PBE In_d 06Sep2000                                              
   LULTRA =        F    use ultrasoft PP ?                                      
   IUNSCR =        1    unscreen: 0-lin 1-nonlin 2-no                           
   RPACOR =    2.200    partial core radius                                     
   POMASS =  114.820; ZVAL   =   13.000    mass and valenz                      
   RCORE  =    2.500    outmost cutoff radius                                   
   RWIGS  =    3.170; RWIGS  =    1.677    wigner-seitz radius (au A)           
   ENMAX  =  239.211; ENMIN  =  179.409 eV                                      
   ICORE  =        3    local potential                                         
   LCOR   =        T    correct aug charges                                     
   LPAW   =        T    paw PP                                                  
   EAUG   =  449.704                                                            
   DEXC   =    0.000                                                            
   RMAX   =    2.552    core radius for proj-oper                               
   RAUG   =    1.300    factor for augmentation sphere                          
   RDEP   =    2.630    radius for radial grids                                 
   RDEPT  =    2.033    core radius for aug-charge                              
                                                                                
   Atomic configuration                                                         
   12 entries                                                                   
     n  l   j            E        occ.                                          
     1  0  0.50    -27747.9169   2.0000                                         
     2  0  0.50     -4154.4438   2.0000                                         
     2  1  1.50     -3728.4305   6.0000                                         
     3  0  0.50      -788.3680   2.0000                                         
     3  1  1.50      -648.9215   6.0000                                         
     3  2  2.50      -432.5893  10.0000                                         
     4  0  0.50      -119.6363   2.0000                                         
     4  1  1.50       -78.1086   6.0000                                         
     4  2  2.50       -18.6227  10.0000                                         
     5  0  0.50        -8.2107   2.0000                                         
     5  1  0.50        -2.5185   1.0000                                         
     4  3  2.50        -2.7212   0.0000                                         
   Description                                                                  
     l       E           TYP  RCUT    TYP  RCUT                                 
     2    -18.6226981     23  2.500                                             
     2     -1.3605826     23  2.500                                             
     0     -8.2107305     23  2.500                                             
     0     -6.1485975     23  2.500                                             
     1     -2.5184867     23  2.500                                             
     1      3.2427302     23  2.500                                             
     3     -1.3605826      7  2.500                                             
  local pseudopotential read in
  partial core-charges read in
  partial kinetic energy density read in
  atomic valenz-charges read in
  non local Contribution for L=           2  read in
    real space projection operators read in
  non local Contribution for L=           2  read in
    real space projection operators read in
  non local Contribution for L=           0  read in
    real space projection operators read in
  non local Contribution for L=           0  read in
    real space projection operators read in
  non local Contribution for L=           1  read in
    real space projection operators read in
  non local Contribution for L=           1  read in
    real space projection operators read in
    PAW grid and wavefunctions read in
 
   number of l-projection  operators is LMAX  =           6
   number of lm-projection operators is LMMAX =          18
 
 POTCAR:    PAW_PBE Cs_sv 08Apr2002               
   VRHFIN =Cs: 5s5p6s                                                           
   LEXCH  = PE                                                                  
   EATOM  =   555.6835 eV,   40.8416 Ry                                         
                                                                                
   TITEL  = PAW_PBE Cs_sv 08Apr2002                                             
   LULTRA =        F    use ultrasoft PP ?                                      
   IUNSCR =        1    unscreen: 0-lin 1-nonlin 2-no                           
   RPACOR =    2.200    partial core radius                                     
   POMASS =  132.900; ZVAL   =    9.000    mass and valenz                      
   RCORE  =    2.500    outmost cutoff radius                                   
   RWIGS  =    2.500; RWIGS  =    1.323    wigner-seitz radius (au A)           
   ENMAX  =  220.318; ENMIN  =  165.238 eV                                      
   RCLOC  =    2.207    cutoff for local pot                                    
   LCOR   =        T    correct aug charges                                     
   LPAW   =        T    paw PP                                                  
   EAUG   =  407.933                                                            
   DEXC   =    0.000                                                            
   RMAX   =    2.554    core radius for proj-oper                               
   RAUG   =    1.300    factor for augmentation sphere                          
   RDEP   =    2.590    radius for radial grids                                 
   RDEPT  =    2.117    core radius for aug-charge                              
                                                                                
   Atomic configuration                                                         
   13 entries                                                                   
     n  l   j            E        occ.                                          
     1  0  0.50    -35790.1377   2.0000                                         
     2  0  0.50     -5613.6201   2.0000                                         
     2  1  1.50     -5035.0101   6.0000                                         
     3  0  0.50     -1167.0767   2.0000                                         
     3  1  1.50      -980.9754   6.0000                                         
     3  2  2.50      -708.0703  10.0000                                         
     4  0  0.50      -220.2386   2.0000                                         
     4  1  1.50      -160.7596   6.0000                                         
     4  2  2.50       -74.2354  10.0000                                         
     5  0  0.50       -26.7287   2.0000                                         
     6  0  0.50        -2.0862   1.0000                                         
     5  1  1.50       -13.5159   6.0000                                         
     5  2  2.50        -0.4136   0.0000                                         
   Description                                                                  
     l       E           TYP  RCUT    TYP  RCUT                                 
     0    -26.7287425     23  1.900                                             
     0     -2.0862306     23  1.900                                             
     1    -13.5158719     23  2.500                                             
     1     -2.7211652     23  2.500                                             
     2     -0.4136171     23  2.500                                             
  local pseudopotential read in
  partial core-charges read in
  partial kinetic energy density read in
  atomic valenz-charges read in
  non local Contribution for L=           0  read in
    real space projection operators read in
  non local Contribution for L=           0  read in
    real space projection operators read in
  non local Contribution for L=           1  read in
    real space projection operators read in
  non local Contribution for L=           1  read in
    real space projection operators read in
  non local Contribution for L=           2  read in
    real space projection operators read in
    PAW grid and wavefunctions read in
 
   number of l-projection  operators is LMAX  =           5
   number of lm-projection operators is LMMAX =          13
 
 POTCAR:    PAW_PBE Cu_pv 06Sep2000               
   VRHFIN =Cu: d10 p1                                                           
   LEXCH  = PE                                                                  
   EATOM  =  4120.1201 eV,  302.8203 Ry                                         
                                                                                
   TITEL  = PAW_PBE Cu_pv 06Sep2000                                             
   LULTRA =        F    use ultrasoft PP ?                                      
   IUNSCR =        1    unscreen: 0-lin 1-nonlin 2-no                           
   RPACOR =    1.500    partial core radius                                     
   POMASS =   63.546; ZVAL   =   17.000    mass and valenz                      
   RCORE  =    2.000    outmost cutoff radius                                   
   RWIGS  =    2.000; RWIGS  =    1.058    wigner-seitz radius (au A)           
   ENMAX  =  368.648; ENMIN  =  276.486 eV                                      
   RCLOC  =    1.304    cutoff for local pot                                    
   LCOR   =        T    correct aug charges                                     
   LPAW   =        T    paw PP                                                  
   EAUG   =  758.233                                                            
   DEXC   =    0.000                                                            
   RMAX   =    2.046    core radius for proj-oper                               
   RAUG   =    1.300    factor for augmentation sphere                          
   RDEP   =    2.025    radius for radial grids                                 
   RDEPT  =    1.558    core radius for aug-charge                              
                                                                                
   Atomic configuration                                                         
    8 entries                                                                   
     n  l   j            E        occ.                                          
     1  0  0.50     -8850.2467   2.0000                                         
     2  0  0.50     -1062.3498   2.0000                                         
     2  1  1.50      -916.8226   6.0000                                         
     3  0  0.50      -114.6929   2.0000                                         
     3  1  1.50       -72.1325   6.0000                                         
     3  2  2.50        -5.0394  10.0000                                         
     4  0  0.50        -4.6097   1.0000                                         
     4  3  2.50        -1.3606   0.0000                                         
   Description                                                                  
     l       E           TYP  RCUT    TYP  RCUT                                 
     1    -72.1324777     23  1.700                                             
     1     -1.3605826     23  1.700                                             
     2     -5.0393776     23  2.000                                             
     2     -6.3999602     23  2.000                                             
     0     -4.6097062     23  1.800                                             
     0     14.1620818     23  1.800                                             
  local pseudopotential read in
  partial core-charges read in
  partial kinetic energy density read in
  atomic valenz-charges read in
  non local Contribution for L=           1  read in
    real space projection operators read in
  non local Contribution for L=           1  read in
    real space projection operators read in
  non local Contribution for L=           2  read in
    real space projection operators read in
  non local Contribution for L=           2  read in
    real space projection operators read in
  non local Contribution for L=           0  read in
    real space projection operators read in
  non local Contribution for L=           0  read in
    real space projection operators read in
    PAW grid and wavefunctions read in
 
   number of l-projection  operators is LMAX  =           6
   number of lm-projection operators is LMMAX =          18
 
 Optimization of the real space projectors (new method)

 maximal supplied QI-value         = 19.84
 optimisation between [QCUT,QGAM] = [ 11.31, 22.82] = [ 35.82,145.81] Ry 
 Optimized for a Real-space Cutoff    1.16 Angstroem

   l    n(q)    QCUT    max X(q) W(low)/X(q) W(high)/X(q)  e(spline) 
   0      8    11.310   168.010    0.31E-03    0.34E-03    0.40E-07
   0      8    11.310   164.674    0.31E-03    0.33E-03    0.39E-07
   1      7    11.310    69.222    0.33E-03    0.38E-03    0.90E-07
   1      7    11.310    56.786    0.32E-03    0.37E-03    0.88E-07
 Optimization of the real space projectors (new method)

 maximal supplied QI-value         = 15.12
 optimisation between [QCUT,QGAM] = [ 11.34, 22.83] = [ 36.00,145.93] Ry 
 Optimized for a Real-space Cutoff    1.35 Angstroem

   l    n(q)    QCUT    max X(q) W(low)/X(q) W(high)/X(q)  e(spline) 
   2      8    11.338     4.551    0.28E-03    0.23E-03    0.47E-07
   2      8    11.338     8.525    0.21E-03    0.28E-04    0.18E-06
   0      9    11.338   208.283    0.40E-03    0.16E-03    0.13E-06
   0      9    11.338   161.407    0.39E-03    0.16E-03    0.13E-06
   1      9    11.338   122.126    0.17E-03    0.46E-03    0.22E-06
   1      9    11.338    62.412    0.16E-03    0.44E-03    0.21E-06
 Optimization of the real space projectors (new method)

 maximal supplied QI-value         = 15.12
 optimisation between [QCUT,QGAM] = [ 11.34, 22.83] = [ 36.00,145.93] Ry 
 Optimized for a Real-space Cutoff    1.52 Angstroem

   l    n(q)    QCUT    max X(q) W(low)/X(q) W(high)/X(q)  e(spline) 
   0     10    11.338    25.322    0.11E-03    0.84E-04    0.41E-06
   0     10    11.338    99.187    0.10E-03    0.81E-04    0.39E-06
   1     10    11.338    11.761    0.19E-03    0.27E-03    0.52E-06
   1     10    11.338     8.275    0.21E-03    0.29E-03    0.57E-06
   2      9    11.338     3.829    0.39E-03    0.19E-03    0.18E-06
 Optimization of the real space projectors (new method)

 maximal supplied QI-value         = 18.90
 optimisation between [QCUT,QGAM] = [ 11.34, 22.87] = [ 36.00,146.41] Ry 
 Optimized for a Real-space Cutoff    1.35 Angstroem

   l    n(q)    QCUT    max X(q) W(low)/X(q) W(high)/X(q)  e(spline) 
   1      9    11.338     3.172    0.27E-04    0.54E-04    0.11E-06
   1      9    11.338     4.083    0.75E-04    0.10E-03    0.21E-06
   2      8    11.338    65.342    0.34E-03    0.39E-03    0.31E-06
   2      8    11.338    61.381    0.35E-03    0.40E-03    0.31E-06
   0      9    11.338    65.742    0.63E-04    0.53E-04    0.82E-07
   0      9    11.338    30.431    0.56E-04    0.48E-04    0.75E-07
  PAW_PBE Cl 06Sep2000                  :
 energy of atom  1       EATOM= -409.7259
 kinetic energy error for atom=    0.0030 (will be added to EATOM!!)
  PAW_PBE In_d 06Sep2000                :
 energy of atom  2       EATOM=-1576.8302
 kinetic energy error for atom=    0.0036 (will be added to EATOM!!)
  PAW_PBE Cs_sv 08Apr2002               :
 energy of atom  3       EATOM= -555.6835
 kinetic energy error for atom=    0.0019 (will be added to EATOM!!)
  PAW_PBE Cu_pv 06Sep2000               :
 energy of atom  4       EATOM=-4120.1201
 kinetic energy error for atom=    0.0655 (will be added to EATOM!!)
 
 
 POSCAR: InCuCl-2L                               
  positions in direct lattice
  No initial velocities read in
 exchange correlation table for  LEXCH =        8
   RHO(1)=    0.500       N(1)  =     2000
   RHO(2)=  100.500       N(2)  =     4000
 


--------------------------------------------------------------------------------------------------------


 ion  position               nearest neighbor table
   1  0.000  0.000  0.555-  46 2.48  29 2.57
   2  0.000  0.000  0.445-  46 2.48  30 2.57
   3  0.000  0.000  0.669-  42 2.48  29 2.57
   4  0.000  0.000  0.331-  43 2.48  30 2.57
   5  0.500  0.500  0.667-  44 2.48  31 2.56
   6  0.500  0.500  0.333-  45 2.48  32 2.56
   7  0.500  0.500  0.557-  44 2.48  33 2.57
   8  0.500  0.500  0.443-  45 2.48  33 2.57
   9  0.746  0.746  0.612-  44 2.48  29 2.56
  10  0.254  0.254  0.388-  45 2.48  30 2.56
  11  0.254  0.254  0.612-  44 2.48  29 2.56
  12  0.746  0.746  0.388-  45 2.48  30 2.56
  13  0.254  0.746  0.612-  44 2.48  29 2.56
  14  0.746  0.254  0.388-  45 2.48  30 2.56
  15  0.746  0.254  0.612-  44 2.48  29 2.56
  16  0.254  0.746  0.388-  45 2.48  30 2.56
  17  0.246  0.246  0.723-  42 2.48  31 2.56
  18  0.754  0.754  0.277-  43 2.48  32 2.56
  19  0.754  0.754  0.723-  42 2.48  31 2.56
  20  0.246  0.246  0.277-  43 2.48  32 2.56
  21  0.754  0.246  0.723-  42 2.48  31 2.56
  22  0.246  0.754  0.277-  43 2.48  32 2.56
  23  0.246  0.754  0.723-  42 2.48  31 2.56
  24  0.754  0.246  0.277-  43 2.48  32 2.56
  25  0.246  0.246  0.500-  46 2.48  33 2.56
  26  0.754  0.754  0.500-  46 2.48  33 2.56
  27  0.754  0.246  0.500-  46 2.48  33 2.56
  28  0.246  0.754  0.500-  46 2.48  33 2.56
  29  0.000  0.000  0.612-   9 2.56  15 2.56  13 2.56  11 2.56   1 2.57   3 2.57
  30  0.000  0.000  0.388-  12 2.56  14 2.56  10 2.56  16 2.56   2 2.57   4 2.57
  31  0.500  0.500  0.723-   5 2.56  17 2.56  19 2.56  21 2.56  23 2.56
  32  0.500  0.500  0.277-   6 2.56  18 2.56  20 2.56  22 2.56  24 2.56
  33  0.500  0.500  0.500-  25 2.56  26 2.56  27 2.56  28 2.56   7 2.57   8 2.57
  34  0.000  0.500  0.556-
  35  0.000  0.500  0.444-
  36  0.500  0.000  0.556-
  37  0.500  0.000  0.444-
  38  0.500  0.000  0.668-
  39  0.500  0.000  0.333-
  40  0.000  0.500  0.668-
  41  0.000  0.500  0.333-
  42  0.000  0.000  0.723-   3 2.48  17 2.48  19 2.48  21 2.48  23 2.48
  43  0.000  0.000  0.277-   4 2.48  18 2.48  20 2.48  22 2.48  24 2.48
  44  0.500  0.500  0.612-   7 2.48   5 2.48  11 2.48  13 2.48   9 2.48  15 2.48
  45  0.500  0.500  0.388-   8 2.48   6 2.48  10 2.48  16 2.48  14 2.48  12 2.48
  46  0.000  0.000  0.500-   1 2.48   2 2.48  25 2.48  26 2.48  27 2.48  28 2.48
 
  LATTYP: Found a simple tetragonal cell.
 ALAT       =     7.1359000206
 C/A-ratio  =     6.3318430850
  
  Lattice vectors:
  
 A1 = (   7.1359000206,   0.0000000000,   0.0000000000)
 A2 = (   0.0000000000,   7.1359000206,   0.0000000000)
 A3 = (   0.0000000000,   0.0000000000,  45.1833992004)


Analysis of symmetry for initial positions (statically):
=====================================================================
 Subroutine PRICEL returns:
 Original cell was already a primitive cell.
 

 Routine SETGRP: Setting up the symmetry group for a 
 simple tetragonal supercell.


 Subroutine GETGRP returns: Found 16 space group operations
 (whereof 16 operations were pure point group operations)
 out of a pool of 16 trial point group operations.


The static configuration has the point symmetry D_4h.


Analysis of symmetry for dynamics (positions and initial velocities):
=====================================================================
 Subroutine PRICEL returns:
 Original cell was already a primitive cell.
 

 Routine SETGRP: Setting up the symmetry group for a 
 simple tetragonal supercell.


 Subroutine GETGRP returns: Found 16 space group operations
 (whereof 16 operations were pure point group operations)
 out of a pool of 16 trial point group operations.


The dynamic configuration has the point symmetry D_4h.


 Subroutine INISYM returns: Found 16 space group operations
 (whereof 16 operations are pure point group operations),
 and found     1 'primitive' translations

 
 
 KPOINTS: Auto                                    

Automatic generation of k-mesh.
Space group operators:
 irot       det(A)        alpha          n_x          n_y          n_z        tau_x        tau_y        tau_z
    1     1.000000     0.000001     1.000000     0.000000     0.000000     0.000000     0.000000     0.000000
    2    -1.000000     0.000001     1.000000     0.000000     0.000000     0.000000     0.000000     0.000000
    3     1.000000    90.000000     0.000000     0.000000    -1.000000     0.000000     0.000000     0.000000
    4    -1.000000    90.000000     0.000000     0.000000    -1.000000     0.000000     0.000000     0.000000
    5     1.000000   179.999999     0.000000     0.000000     1.000000     0.000000     0.000000     0.000000
    6    -1.000000   179.999999     0.000000     0.000000     1.000000     0.000000     0.000000     0.000000
    7     1.000000    90.000000     0.000000     0.000000     1.000000     0.000000     0.000000     0.000000
    8    -1.000000    90.000000     0.000000     0.000000     1.000000     0.000000     0.000000     0.000000
    9     1.000000   180.000000     0.000000     1.000000     0.000000     0.000000     0.000000     0.000000
   10    -1.000000   180.000000     0.000000     1.000000     0.000000     0.000000     0.000000     0.000000
   11     1.000000   180.000000     0.707107     0.707107     0.000000     0.000000     0.000000     0.000000
   12    -1.000000   180.000000     0.707107     0.707107     0.000000     0.000000     0.000000     0.000000
   13     1.000000   180.000000     1.000000     0.000000     0.000000     0.000000     0.000000     0.000000
   14    -1.000000   180.000000     1.000000     0.000000     0.000000     0.000000     0.000000     0.000000
   15     1.000000   180.000000     0.707107    -0.707107     0.000000     0.000000     0.000000     0.000000
   16    -1.000000   180.000000     0.707107    -0.707107     0.000000     0.000000     0.000000     0.000000
 
 Subroutine IBZKPT returns following result:
 ===========================================
 
 Found      6 irreducible k-points:
 
 Following reciprocal coordinates:
            Coordinates               Weight
  0.000000  0.000000  0.000000      1.000000
  0.250000  0.000000  0.000000      4.000000
  0.500000  0.000000  0.000000      2.000000
  0.250000  0.250000  0.000000      4.000000
  0.500000  0.250000  0.000000      4.000000
  0.500000  0.500000  0.000000      1.000000
 
 Following cartesian coordinates:
            Coordinates               Weight
  0.000000  0.000000  0.000000      1.000000
  0.035034  0.000000  0.000000      4.000000
  0.070068  0.000000  0.000000      2.000000
  0.035034  0.035034  0.000000      4.000000
  0.070068  0.035034  0.000000      4.000000
  0.070068  0.070068  0.000000      1.000000
 
 
 Subroutine IBZKPT_HF returns following result:
 ==============================================
 
 Found     16 k-points in 1st BZ
 the following     16 k-points will be used (e.g. in the exchange kernel)
 Following reciprocal coordinates:   # in IRBZ
  0.000000  0.000000  0.000000    0.06250000   1 t-inv F
  0.250000  0.000000  0.000000    0.06250000   2 t-inv F
  0.500000  0.000000  0.000000    0.06250000   3 t-inv F
  0.250000  0.250000  0.000000    0.06250000   4 t-inv F
  0.500000  0.250000  0.000000    0.06250000   5 t-inv F
  0.500000  0.500000  0.000000    0.06250000   6 t-inv F
 -0.250000  0.000000  0.000000    0.06250000   2 t-inv F
  0.000000  0.250000  0.000000    0.06250000   2 t-inv F
  0.000000 -0.250000  0.000000    0.06250000   2 t-inv F
  0.000000  0.500000  0.000000    0.06250000   3 t-inv F
 -0.250000 -0.250000  0.000000    0.06250000   4 t-inv F
 -0.250000  0.250000  0.000000    0.06250000   4 t-inv F
  0.250000 -0.250000  0.000000    0.06250000   4 t-inv F
 -0.500000 -0.250000  0.000000    0.06250000   5 t-inv F
 -0.250000  0.500000  0.000000    0.06250000   5 t-inv F
  0.250000 -0.500000  0.000000    0.06250000   5 t-inv F


--------------------------------------------------------------------------------------------------------




 Dimension of arrays:
   k-points           NKPTS =      6   k-points in BZ     NKDIM =     16   number of bands    NBANDS=    256
   number of dos      NEDOS =    301   number of ions     NIONS =     46
   non local maximal  LDIM  =      6   non local SUM 2l+1 LMDIM =     18
   total plane-waves  NPLWV = 400000
   max r-space proj   IRMAX =   2600   max aug-charges    IRDMAX=   8890
   dimension x,y,z NGX =    40 NGY =   40 NGZ =  250
   dimension x,y,z NGXF=    80 NGYF=   80 NGZF=  500
   support grid    NGXF=    80 NGYF=   80 NGZF=  500
   ions per type =              28   5   8   5
 NGX,Y,Z   is equivalent  to a cutoff of   9.32,  9.32,  9.20 a.u.
 NGXF,Y,Z  is equivalent  to a cutoff of  18.64, 18.64, 18.40 a.u.


 I would recommend the setting:
   dimension x,y,z NGX =    39 NGY =   39 NGZ =  247
 SYSTEM =  Screening bandgap                       
 POSCAR =  InCuCl-2L                               

 Startparameter for this run:
   NWRITE =      2    write-flag & timer
   PREC   = normal    normal or accurate (medium, high low for compatibility)
   ISTART =      1    job   : 0-new  1-cont  2-samecut
   ICHARG =      2    charge: 1-file 2-atom 10-const
   ISPIN  =      1    spin polarized calculation?
   LNONCOLLINEAR =      F non collinear calculations
   LSORBIT =      F    spin-orbit coupling
   INIWAV =      1    electr: 0-lowe 1-rand  2-diag
   LASPH  =      F    aspherical Exc in radial PAW
   METAGGA=      F    non-selfconsistent MetaGGA calc.

 Electronic Relaxation 1
   ENCUT  =  500.0 eV  36.75 Ry    6.06 a.u.  13.01 13.01 82.38*2*pi/ulx,y,z
   ENINI  =  500.0     initial cutoff
   ENAUG  =  758.2 eV  augmentation charge cutoff
   NELM   =     60;   NELMIN=  2; NELMDL=  0     # of ELM steps 
   EDIFF  = 0.1E-05   stopping-criterion for ELM
   LREAL  =      T    real-space projection
   NLSPLINE    = F    spline interpolate recip. space projectors
   LCOMPAT=      F    compatible to vasp.4.4
   GGA_COMPAT  = T    GGA compatible to vasp.4.4-vasp.4.6
   LMAXPAW     = -100 max onsite density
   LMAXMIX     =    2 max onsite mixed and CHGCAR
   VOSKOWN=      0    Vosko Wilk Nusair interpolation
   ROPT   =   -0.00050  -0.00050  -0.00050  -0.00050
 Ionic relaxation
   EDIFFG = 0.1E-04   stopping-criterion for IOM
   NSW    =      0    number of steps for IOM
   NBLOCK =      1;   KBLOCK =      1    inner block; outer block 
   IBRION =     -1    ionic relax: 0-MD 1-quasi-New 2-CG
   NFREE  =      0    steps in history (QN), initial steepest desc. (CG)
   ISIF   =      0    stress and relaxation
   IWAVPR =     10    prediction:  0-non 1-charg 2-wave 3-comb
   ISYM   =      3    0-nonsym 1-usesym 2-fastsym
   LCORR  =      T    Harris-Foulkes like correction to forces

   POTIM  = 0.5000    time-step for ionic-motion
   TEIN   =    0.0    initial temperature
   TEBEG  =    0.0;   TEEND  =   0.0 temperature during run
   SMASS  =  -3.00    Nose mass-parameter (am)
   estimated Nose-frequenzy (Omega)   =  0.10E-29 period in steps =****** mass=  -0.116E-26a.u.
   SCALEE = 1.0000    scale energy and forces
   NPACO  =    256;   APACO  = 16.0  distance and # of slots for P.C.
   PSTRESS=    0.0 pullay stress

  Mass of Ions in am
   POMASS =  35.45114.82132.90 63.55
  Ionic Valenz
   ZVAL   =   7.00 13.00  9.00 17.00
  Atomic Wigner-Seitz radii
   RWIGS  =  -1.00 -1.00 -1.00 -1.00
  virtual crystal weights 
   VCA    =   1.00  1.00  1.00  1.00
   NELECT =     418.0000    total number of electrons
   NUPDOWN=      -1.0000    fix difference up-down

 DOS related values:
   EMIN   =  10.00;   EMAX   =-10.00  energy-range for DOS
   EFERMI =   0.00
   ISMEAR =     0;   SIGMA  =   0.05  broadening in eV -4-tet -1-fermi 0-gaus

 Electronic relaxation 2 (details)
   IALGO  =     53    algorithm
   LDIAG  =      T    sub-space diagonalisation (order eigenvalues)
   LSUBROT=      F    optimize rotation matrix (better conditioning)
   TURBO    =      0    0=normal 1=particle mesh
   IRESTART =      0    0=no restart 2=restart with 2 vectors
   NREBOOT  =      0    no. of reboots
   NMIN     =      0    reboot dimension
   EREF     =   0.00    reference energy to select bands
   IMIX   =      4    mixing-type and parameters
     AMIX     =   0.40;   BMIX     =  1.00
     AMIX_MAG =   1.60;   BMIX_MAG =  1.00
     AMIN     =   0.01
     WC   =   100.;   INIMIX=   1;  MIXPRE=   1;  MAXMIX= -45

 Intra band minimization:
   WEIMIN = 0.0000     energy-eigenvalue tresh-hold
   EBREAK =  0.98E-09  absolut break condition
   DEPER  =   0.30     relativ break condition  

   TIME   =   0.40     timestep for ELM

  volume/ion in A,a.u.               =      50.02       337.53
  Fermi-wavevector in a.u.,A,eV,Ry     =   0.927203  1.752159 11.697000  0.859705
  Thomas-Fermi vector in A             =   2.053247
 
 Write flags
   LWAVE  =      T    write WAVECAR
   LCHARG =      T    write CHGCAR
   LVTOT  =      T    write LOCPOT, total local potential
   LVHAR  =      F    write LOCPOT, Hartree potential only
   LELF   =      F    write electronic localiz. function (ELF)
   LORBIT =      0    0 simple, 1 ext, 2 COOP (PROOUT)


 Dipole corrections
   LMONO  =      F    monopole corrections only (constant potential shift)
   LDIPOL =      F    correct potential (dipole corrections)
   IDIPOL =      0    1-x, 2-y, 3-z, 4-all directions 
   EPSILON=  1.0000000 bulk dielectric constant

 Exchange correlation treatment:
   GGA     =    --    GGA type
   LEXCH   =     8    internal setting for exchange type
   VOSKOWN=      0    Vosko Wilk Nusair interpolation
   EXXOEP  =     0    0=HF, 1=EXX-LHF (local Hartree Fock) 2=EXX OEP
   LHFCALC =     T    Hartree Fock is set to
   LSYMGRAD=     F    symmetrize gradient (conserves proper symmetry)
   PRECFOCK=normal    Normal, Fast or Accurate (Low or Medium for compatibility)
   LRHFCALC=     F    long range Hartree Fock
   LRSCOR  =     F    long range correlation only (use DFT for short range part)
   LTHOMAS =     F    Thomas Fermi screening in HF
   LMODELHF=     F    short range full HF, long range fraction AEXX
   ENCUT4O =  -1.0   cutoff for four orbital integrals eV
   LMAXFOCK=     4    L truncation for augmentation on plane wave grid
   LMAXFOCKAE=  -1    L truncation for all-electron charge restoration on plane wave grid
   NMAXFOCKAE=   1    number of basis functions for all-electron charge restoration
   LFOCKAEDFT=     F  apply the AE augmentation even for DFT
   NKREDX  =     1    reduce k-point grid by
   NKREDY  =     1    reduce k-point grid by
   NKREDZ  =     1    reduce k-point grid by
   SHIFTRED=     F    shift reduced grid of Gamma
   HFKIDENT=     F    idential grid for each k-point
   ODDONLY =     F    use only odd q-grid points
   EVENONLY=     F    use only even q-grid points
   HFALPHA =   -1.0000 decay constant for conv. correction
   MCALPHA =    0.0000 extent of test-charge in conv. correction in multipole expansion
   AEXX    =    0.2500 exact exchange contribution
   HFSCREEN=    0.2000 screening length (either q_TF or 0.3 A-1)
   HFSCREENC=   0.2000 screening length for correlation (either q_TF or 0.3 A-1)
   HFRCUT  =    0.0000 spherical cutoff for potential kernel
   ALDAX   =    0.7500 LDA exchange part
   AGGAX   =    0.7500 GGA exchange part
   ALDAC   =    1.0000 LDA correlation
   AGGAC   =    1.0000 GGA correlation
   NBANDSGWLOW=     1    first orbital included in HF term
   ENCUTFOCK=  -1.0 apply spherical cutoff to Coloumb kernel
 Linear response parameters
   LEPSILON=     F    determine dielectric tensor
   LRPA    =     F    only Hartree local field effects (RPA)
   LNABLA  =     F    use nabla operator in PAW spheres
   LVEL    =     F    velocity operator in full k-point grid
   LINTERFAST=   F  fast interpolation
   KINTER  =     0    interpolate to denser k-point grid
   CSHIFT  =0.1000    complex shift for real part using Kramers Kronig
   OMEGAMAX=  -1.0    maximum frequency
   DEG_THRESHOLD= 0.2000000E-02 threshold for treating states as degnerate
   RTIME   =    0.100 relaxation time in fs

 Orbital magnetization related:
   ORBITALMAG=     F  switch on orbital magnetization
   LCHIMAG   =     F  perturbation theory with respect to B field
   DQ        =  0.001000  dq finite difference perturbation B field



--------------------------------------------------------------------------------------------------------


 Static calculation
 charge density and potential will be updated during run
 non-spin polarized calculation
 Conjugate gradient for all bands (Freysoldt, et al. PRB 79, 241103 (2009))
 perform sub-space diagonalisation
    before iterative eigenvector-optimisation
 modified Broyden-mixing scheme, WC =      100.0
 initial mixing is a Kerker type mixing with AMIX =  0.4000 and BMIX =      1.0000
 Hartree-type preconditioning will be used
 using additional bands           47
 real space projection scheme for non local part
 use partial core corrections
 no Harris-corrections to forces 
 use gradient corrections 
 use of overlap-Matrix (Vanderbilt PP)
 Gauss-broadening in eV      SIGMA  =   0.05


--------------------------------------------------------------------------------------------------------


  energy-cutoff  :      500.00
  volume of cell :     2300.79
      direct lattice vectors                 reciprocal lattice vectors
     7.135900021  0.000000000  0.000000000     0.140136493  0.000000000  0.000000000
     0.000000000  7.135900021  0.000000000     0.000000000  0.140136493  0.000000000
     0.000000000  0.000000000 45.183399200     0.000000000  0.000000000  0.022132022

  length of vectors
     7.135900021  7.135900021 45.183399200     0.140136493  0.140136493  0.022132022


 
 old parameters found on file WAVECAR:
  energy-cutoff  :      500.00
  volume of cell :     2300.79
      direct lattice vectors                 reciprocal lattice vectors
     7.135900021  0.000000000  0.000000000     0.140136493  0.000000000  0.000000000
     0.000000000  7.135900021  0.000000000     0.000000000  0.140136493  0.000000000
     0.000000000  0.000000000 45.183399200     0.000000000  0.000000000  0.022132022

  length of vectors

 
 k-points in units of 2pi/SCALE and weight: Auto                                    
   0.00000000  0.00000000  0.00000000       0.062
   0.03503412  0.00000000  0.00000000       0.250
   0.07006825  0.00000000  0.00000000       0.125
   0.03503412  0.03503412  0.00000000       0.250
   0.07006825  0.03503412  0.00000000       0.250
   0.07006825  0.07006825  0.00000000       0.062
 
 k-points in reciprocal lattice and weights: Auto                                    
   0.00000000  0.00000000  0.00000000       0.062
   0.25000000  0.00000000  0.00000000       0.250
   0.50000000  0.00000000  0.00000000       0.125
   0.25000000  0.25000000  0.00000000       0.250
   0.50000000  0.25000000  0.00000000       0.250
   0.50000000  0.50000000  0.00000000       0.062
 
 position of ions in fractional coordinates (direct lattice) 
   0.00000000  0.00000000  0.55489999
   0.00000000  0.00000000  0.44510001
   0.00000000  0.00000000  0.66850001
   0.00000000  0.00000000  0.33149999
   0.50000000  0.50000000  0.66659999
   0.50000000  0.50000000  0.33340001
   0.50000000  0.50000000  0.55680001
   0.50000000  0.50000000  0.44319999
   0.74590003  0.74590003  0.61170000
   0.25409997  0.25409999  0.38830000
   0.25409997  0.25409999  0.61170000
   0.74590003  0.74590003  0.38830000
   0.25409999  0.74590003  0.61170000
   0.74590003  0.25409997  0.38830000
   0.74590003  0.25409997  0.61170000
   0.25409999  0.74590003  0.38830000
   0.24589998  0.24589998  0.72329998
   0.75410002  0.75410002  0.27669999
   0.75410002  0.75410002  0.72329998
   0.24589998  0.24589998  0.27669999
   0.75410002  0.24589998  0.72329998
   0.24589998  0.75410002  0.27669999
   0.24589998  0.75410002  0.72329998
   0.75410002  0.24589998  0.27669999
   0.24589998  0.24589998  0.50000000
   0.75410002  0.75410002  0.50000000
   0.75410002  0.24589998  0.50000000
   0.24589998  0.75410002  0.50000000
   0.00000000  0.00000000  0.61170000
   0.00000000  0.00000000  0.38830000
   0.50000000  0.50000000  0.72329998
   0.50000000  0.50000000  0.27669999
   0.50000000  0.50000000  0.50000000
   0.00000000  0.50000000  0.55579996
   0.00000000  0.50000000  0.44420001
   0.50000000  0.00000000  0.55579996
   0.50000000  0.00000000  0.44420001
   0.50000000  0.00000000  0.66750002
   0.50000000  0.00000000  0.33250001
   0.00000000  0.50000000  0.66750002
   0.00000000  0.50000000  0.33250001
   0.00000000  0.00000000  0.72329998
   0.00000000  0.00000000  0.27669999
   0.50000000  0.50000000  0.61170000
   0.50000000  0.50000000  0.38830000
   0.00000000  0.00000000  0.50000000
 
 position of ions in cartesian coordinates  (Angst):
   0.00000000  0.00000000 25.07226781
   0.00000000  0.00000000 20.11113139
   0.00000000  0.00000000 30.20510264
   0.00000000  0.00000000 14.97829656
   3.56795001  3.56795001 30.11925341
   3.56795001  3.56795001 15.06414579
   3.56795001  3.56795001 25.15811704
   3.56795001  3.56795001 20.02528216
   5.32266808  5.32266808 27.63868520
   1.81323195  1.81323216 17.54471400
   1.81323195  1.81323216 27.63868520
   5.32266808  5.32266808 17.54471400
   1.81323216  5.32266808 27.63868520
   5.32266808  1.81323195 17.54471400
   5.32266808  1.81323195 27.63868520
   1.81323216  5.32266808 17.54471400
   1.75471764  1.75471764 32.68115174
   5.38118238  5.38118238 12.50224611
   5.38118238  5.38118238 32.68115174
   1.75471764  1.75471764 12.50224611
   5.38118238  1.75471764 32.68115174
   1.75471764  5.38118238 12.50224611
   1.75471764  5.38118238 32.68115174
   5.38118238  1.75471764 12.50224611
   1.75471764  1.75471764 22.59169960
   5.38118238  5.38118238 22.59169960
   5.38118238  1.75471764 22.59169960
   1.75471764  5.38118238 22.59169960
   0.00000000  0.00000000 27.63868520
   0.00000000  0.00000000 17.54471400
   3.56795001  3.56795001 32.68115174
   3.56795001  3.56795001 12.50224611
   3.56795001  3.56795001 22.59169960
   0.00000000  3.56795001 25.11293151
   0.00000000  3.56795001 20.07046633
   3.56795001  0.00000000 25.11293151
   3.56795001  0.00000000 20.07046633
   3.56795001  0.00000000 30.15991982
   3.56795001  0.00000000 15.02348073
   0.00000000  3.56795001 30.15991982
   0.00000000  3.56795001 15.02348073
   0.00000000  0.00000000 32.68115174
   0.00000000  0.00000000 12.50224611
   3.56795001  3.56795001 27.63868520
   3.56795001  3.56795001 17.54471400
   0.00000000  0.00000000 22.59169960
 


--------------------------------------------------------------------------------------------------------


 k-point  1 :   0.0000 0.0000 0.0000  plane waves:   58245
 k-point  2 :   0.2500 0.0000 0.0000  plane waves:   58352
 k-point  3 :   0.5000 0.0000 0.0000  plane waves:   58350
 k-point  4 :   0.2500 0.2500 0.0000  plane waves:   58440
 k-point  5 :   0.5000 0.2500 0.0000  plane waves:   58450
 k-point  6 :   0.5000 0.5000 0.0000  plane waves:   58580

 maximum and minimum number of plane-waves per node :      3964     3846

 maximum number of plane-waves:     58580
 maximum index in each direction: 
   IXMAX=   13   IYMAX=   13   IZMAX=   82
   IXMIN=  -13   IYMIN=  -13   IZMIN=  -82

 WARNING: aliasing errors must be expected set NGX to  54 to avoid them
 WARNING: aliasing errors must be expected set NGY to  54 to avoid them
 WARNING: aliasing errors must be expected set NGZ to 330 to avoid them
 aliasing errors are usually negligible using standard VASP settings
 and one can safely disregard these warnings

 real space projection operators:
  total allocation   :       6433.28 KBytes
  max/ min on nodes  :        589.30        186.20


 parallel 3D FFT for wavefunctions:
    minimum data exchange during FFTs selected (reduces bandwidth)
 parallel 3D FFT for charge:
    minimum data exchange during FFTs selected (reduces bandwidth)

 
 Radii for the augmentation spheres in the non-local exchange
 for species   1 augmentation radius   1.176 (default was   0.941)
       energy cutoff for augmentation   2000.0
 for species   2 augmentation radius   1.347 (default was   1.077)
       energy cutoff for augmentation   2000.0
 for species   3 augmentation radius   1.414 (default was   1.131)
       energy cutoff for augmentation   2000.0
 for species   4 augmentation radius   1.037 (default was   0.830)
       energy cutoff for augmentation   2000.0

 real space projection operators:
  total allocation   :       8103.20 KBytes
  max/ min on nodes  :        737.40        207.49

 Maximum index for augmentation-charges in exchange          193
  SETUP_FOCK is finished

 total amount of memory used by VASP on root node    64567. kBytes
========================================================================

   base      :      30000. kBytes
   nonlr-proj:       5084. kBytes
   fftplans  :       4349. kBytes
   grid      :       6080. kBytes
   one-center:         62. kBytes
   HF        :        194. kBytes
   wavefun   :      18798. kBytes
 
     INWAV:  cpu time    6.8440: real time    6.8472
 Broyden mixing: mesh for mixing (old mesh)
   NGX = 27   NGY = 27   NGZ =165
  (NGX  = 80   NGY  = 80   NGZ  =500)
  gives a total of 120285 points

 initial charge density was supplied:
 charge density of overlapping atoms calculated
 number of electron     418.0000000 magnetization 
 charge density for first step will be calculated from the start-wavefunctions


--------------------------------------------------------------------------------------------------------


 Maximum index for non-local projection operator          221
 Maximum index for augmentation-charges          497 (set IRDMAX)


--------------------------------------------------------------------------------------------------------


 initial charge from wavefunction
 First call to EWALD:  gamma=   0.134
 Maximum number of real-space cells 5x 5x 1
 Maximum number of reciprocal cells 2x 2x 8

 FEWALD executed in parallel
    FEWALD:  cpu time    0.0030: real time    0.0025


----------------------------------------- Iteration    1(   1)  ---------------------------------------


    POTLOK:  cpu time    0.1680: real time    0.1683
    SETDIJ:  cpu time    0.1890: real time    0.1889
    TRIAL :  cpu time 1104.5631: real time 1105.0885
    CORREC:  cpu time    0.0000: real time    0.0065
    CHARGE:  cpu time    0.4689: real time    0.4688
    --------------------------------------------
      LOOP:  cpu time 1105.3960: real time 1105.9347

 eigenvalue-minimisations  :     0
 total energy-change (2. order) :-0.8874319E+02  (-0.9313804E+02)
 number of electron     418.0001713 magnetization 
 augmentation part       49.7775733 magnetization 

 Free energy of the ion-electron system (eV)
  ---------------------------------------------------
  alpha Z        PSCENC =       604.60654105
  Ewald energy   TEWEN  =    249172.25771524
  -Hartree energ DENC   =   -289381.83386330
  -exchange      EXHF   =      1049.95224551
  -V(xc)+E(xc)   XCENC  =      1065.46017763
  PAW double counting   =     53152.85004851   -53700.08464480
  entropy T*S    EENTRO =        -0.01600808
  eigenvalues    EBANDS =     -6395.33852041
  atomic energy  EATOM  =     44343.42510124
  ---------------------------------------------------
  free energy    TOTEN  =       -88.74319484 eV

  energy without entropy =      -88.72718676  energy(sigma->0) =      -88.73519080
  exchange ACFDT corr.  =        -0.22087515  see jH, gK, PRB 81, 115126


--------------------------------------------------------------------------------------------------------




----------------------------------------- Iteration    1(   2)  ---------------------------------------


    POTLOK:  cpu time    0.1760: real time    0.1755
    SETDIJ:  cpu time    0.1870: real time    0.1870
    TRIAL :  cpu time 1073.6998: real time 1074.1817
    CORREC:  cpu time    0.0000: real time    0.0011
    CHARGE:  cpu time    0.4679: real time    0.4678
    --------------------------------------------
      LOOP:  cpu time 1074.5316: real time 1075.0360

 eigenvalue-minimisations  :     0
 total energy-change (2. order) :-0.4112358E+02  (-0.7828289E+02)
 number of electron     418.0001650 magnetization 
 augmentation part       47.7659702 magnetization 

 Free energy of the ion-electron system (eV)
  ---------------------------------------------------
  alpha Z        PSCENC =       604.60654105
  Ewald energy   TEWEN  =    249172.25771524
  -Hartree energ DENC   =   -290592.86236551
  -exchange      EXHF   =      1060.45981021
  -V(xc)+E(xc)   XCENC  =      1073.80520705
  PAW double counting   =     50403.48105432   -50983.11200795
  entropy T*S    EENTRO =        -0.00872943
  eigenvalues    EBANDS =     -5211.91181810
  atomic energy  EATOM  =     44343.42510124
  ---------------------------------------------------
  free energy    TOTEN  =      -129.86677051 eV

  energy without entropy =     -129.85804109  energy(sigma->0) =     -129.86240580
  exchange ACFDT corr.  =        -0.05186130  see jH, gK, PRB 81, 115126


--------------------------------------------------------------------------------------------------------




----------------------------------------- Iteration    1(   3)  ---------------------------------------


    POTLOK:  cpu time    0.1750: real time    0.1758
    SETDIJ:  cpu time    0.1870: real time    0.1866
    TRIAL :  cpu time 1092.3659: real time 1092.8554
    CORREC:  cpu time    0.0010: real time    0.0010
    CHARGE:  cpu time    0.4609: real time    0.4612
    --------------------------------------------
      LOOP:  cpu time 1093.1908: real time 1093.6940

 eigenvalue-minimisations  :     0
 total energy-change (2. order) :-0.1423010E+02  (-0.1169328E+03)
 number of electron     418.0001726 magnetization 
 augmentation part       50.0212080 magnetization 

 Free energy of the ion-electron system (eV)
  ---------------------------------------------------
  alpha Z        PSCENC =       604.60654105
  Ewald energy   TEWEN  =    249172.25771524
  -Hartree energ DENC   =   -288838.67046742
  -exchange      EXHF   =      1053.27211520
  -V(xc)+E(xc)   XCENC  =      1062.04686815
  PAW double counting   =     48802.92409082   -49300.31654715
  entropy T*S    EENTRO =        -0.00002219
  eigenvalues    EBANDS =     -7043.63355717
  atomic energy  EATOM  =     44343.42510124
  ---------------------------------------------------
  free energy    TOTEN  =      -144.09686945 eV

  energy without entropy =     -144.09684726  energy(sigma->0) =     -144.09685836
  exchange ACFDT corr.  =        -0.02499946  see jH, gK, PRB 81, 115126


--------------------------------------------------------------------------------------------------------




----------------------------------------- Iteration    1(   4)  ---------------------------------------


    POTLOK:  cpu time    0.1750: real time    0.1758
    SETDIJ:  cpu time    0.1880: real time    0.1869
    TRIAL :  cpu time 1074.0967: real time 1074.5796
    CORREC:  cpu time    0.0000: real time    0.0039
    CHARGE:  cpu time    0.4619: real time    0.4629
    --------------------------------------------
      LOOP:  cpu time 1074.9226: real time 1075.4258

 eigenvalue-minimisations  :     0
 total energy-change (2. order) : 0.1393504E+02  (-0.1927573E+03)
 number of electron     418.0001664 magnetization 
 augmentation part       48.1356101 magnetization 

 Free energy of the ion-electron system (eV)
  ---------------------------------------------------
  alpha Z        PSCENC =       604.60654105
  Ewald energy   TEWEN  =    249172.25771524
  -Hartree energ DENC   =   -290091.98005043
  -exchange      EXHF   =      1062.62154537
  -V(xc)+E(xc)   XCENC  =      1074.58167791
  PAW double counting   =     50063.67913670   -50641.10764761
  entropy T*S    EENTRO =        -0.00000000
  eigenvalues    EBANDS =     -5718.24582206
  atomic energy  EATOM  =     44343.42510124
  ---------------------------------------------------
  free energy    TOTEN  =      -130.16182478 eV

  energy without entropy =     -130.16182478  energy(sigma->0) =     -130.16182478
  exchange ACFDT corr.  =        -0.00000951  see jH, gK, PRB 81, 115126


--------------------------------------------------------------------------------------------------------




----------------------------------------- Iteration    1(   5)  ---------------------------------------


    POTLOK:  cpu time    0.1750: real time    0.1759
    SETDIJ:  cpu time    0.1890: real time    0.1885
    TRIAL :  cpu time 1074.1407: real time 1074.6224
    CORREC:  cpu time    0.0000: real time    0.0009
    CHARGE:  cpu time    0.4599: real time    0.4605
    --------------------------------------------
      LOOP:  cpu time 1074.9676: real time 1075.4745

 eigenvalue-minimisations  :     0
 total energy-change (2. order) : 0.3486890E+02  (-0.4361865E+03)
 number of electron     418.0001700 magnetization 
 augmentation part       49.3183983 magnetization 

 Free energy of the ion-electron system (eV)
  ---------------------------------------------------
  alpha Z        PSCENC =       604.60654105
  Ewald energy   TEWEN  =    249172.25771524
  -Hartree energ DENC   =   -288937.40120033
  -exchange      EXHF   =      1053.12545989
  -V(xc)+E(xc)   XCENC  =      1062.93762422
  PAW double counting   =     49543.54970001   -50041.89855016
  entropy T*S    EENTRO =        -0.00000000
  eigenvalues    EBANDS =     -6895.89531936
  atomic energy  EATOM  =     44343.42510124
  ---------------------------------------------------
  free energy    TOTEN  =       -95.29292821 eV

  energy without entropy =      -95.29292821  energy(sigma->0) =      -95.29292821
  exchange ACFDT corr.  =        -0.00000000  see jH, gK, PRB 81, 115126


--------------------------------------------------------------------------------------------------------




----------------------------------------- Iteration    1(   6)  ---------------------------------------


    POTLOK:  cpu time    0.1760: real time    0.1759
    SETDIJ:  cpu time    0.1860: real time    0.1865
    TRIAL :  cpu time 1075.2575: real time 1075.7398
    CORREC:  cpu time    0.0000: real time    0.0007
    CHARGE:  cpu time    0.4589: real time    0.4598
    --------------------------------------------
      LOOP:  cpu time 1076.0794: real time 1076.5680

 eigenvalue-minimisations  :     0
 total energy-change (2. order) : 0.5619510E+02  (-0.6857334E+03)
 number of electron     418.0001690 magnetization 
 augmentation part       49.3135058 magnetization 

 Free energy of the ion-electron system (eV)
  ---------------------------------------------------
  alpha Z        PSCENC =       604.60654105
  Ewald energy   TEWEN  =    249172.25771524
  -Hartree energ DENC   =   -288071.77194379
  -exchange      EXHF   =      1053.67725700
  -V(xc)+E(xc)   XCENC  =      1067.52379113
  PAW double counting   =     50150.26681699   -50699.82709375
  entropy T*S    EENTRO =        -0.00000000
  eigenvalues    EBANDS =     -7659.25600905
  atomic energy  EATOM  =     44343.42510124
  ---------------------------------------------------
  free energy    TOTEN  =       -39.09782394 eV

  energy without entropy =      -39.09782394  energy(sigma->0) =      -39.09782394
  exchange ACFDT corr.  =         0.00000000  see jH, gK, PRB 81, 115126


--------------------------------------------------------------------------------------------------------




----------------------------------------- Iteration    1(   7)  ---------------------------------------


    POTLOK:  cpu time    0.1730: real time    0.1749
    SETDIJ:  cpu time    0.1870: real time    0.1868
    TRIAL :  cpu time 1075.5095: real time 1075.9923
    CORREC:  cpu time    0.0010: real time    0.0007
    CHARGE:  cpu time    0.4599: real time    0.4605
    --------------------------------------------
      LOOP:  cpu time 1076.3324: real time 1076.8213

 eigenvalue-minimisations  :     0
 total energy-change (2. order) : 0.7090836E+01  (-0.6969237E+03)
 number of electron     418.0001689 magnetization 
 augmentation part       49.2126731 magnetization 

 Free energy of the ion-electron system (eV)
  ---------------------------------------------------
  alpha Z        PSCENC =       604.60654105
  Ewald energy   TEWEN  =    249172.25771524
  -Hartree energ DENC   =   -287598.54220883
  -exchange      EXHF   =      1053.07240818
  -V(xc)+E(xc)   XCENC  =      1066.87154992
  PAW double counting   =     50075.28458447   -50620.04134330
  entropy T*S    EENTRO =        -0.00000000
  eigenvalues    EBANDS =     -8128.94133603
  atomic energy  EATOM  =     44343.42510124
  ---------------------------------------------------
  free energy    TOTEN  =       -32.00698805 eV

  energy without entropy =      -32.00698805  energy(sigma->0) =      -32.00698805
  exchange ACFDT corr.  =         0.00000000  see jH, gK, PRB 81, 115126


--------------------------------------------------------------------------------------------------------




----------------------------------------- Iteration    1(   8)  ---------------------------------------


    POTLOK:  cpu time    0.1750: real time    0.1750
    SETDIJ:  cpu time    0.1870: real time    0.1868
    TRIAL :  cpu time 1074.8766: real time 1075.3643
    CORREC:  cpu time    0.0000: real time    0.0036
    CHARGE:  cpu time    0.4679: real time    0.4680
    --------------------------------------------
      LOOP:  cpu time 1075.7075: real time 1076.2034

 eigenvalue-minimisations  :     0
 total energy-change (2. order) :-0.1172998E+02  (-0.6213979E+03)
 number of electron     418.0001699 magnetization 
 augmentation part       49.3050988 magnetization 

 Free energy of the ion-electron system (eV)
  ---------------------------------------------------
  alpha Z        PSCENC =       604.60654105
  Ewald energy   TEWEN  =    249172.25771524
  -Hartree energ DENC   =   -287543.69110792
  -exchange      EXHF   =      1052.87390484
  -V(xc)+E(xc)   XCENC  =      1066.14858810
  PAW double counting   =     49909.40008556   -50446.05228986
  entropy T*S    EENTRO =        -0.00352584
  eigenvalues    EBANDS =     -8202.70550878
  atomic energy  EATOM  =     44343.42510124
  ---------------------------------------------------
  free energy    TOTEN  =       -43.73697053 eV

  energy without entropy =      -43.73344469  energy(sigma->0) =      -43.73520761
  exchange ACFDT corr.  =         0.00000000  see jH, gK, PRB 81, 115126


--------------------------------------------------------------------------------------------------------




----------------------------------------- Iteration    1(   9)  ---------------------------------------


    POTLOK:  cpu time    0.1740: real time    0.1753
    SETDIJ:  cpu time    0.1870: real time    0.1865
    TRIAL :  cpu time 1073.4648: real time 1073.9466
    CORREC:  cpu time    0.0010: real time    0.0011
    CHARGE:  cpu time    0.4599: real time    0.4603
    --------------------------------------------
      LOOP:  cpu time 1074.2887: real time 1074.9184

 eigenvalue-minimisations  :     0
 total energy-change (2. order) :-0.3072048E+02  (-0.3682712E+03)
 number of electron     418.0001706 magnetization 
 augmentation part       49.5594504 magnetization 

 Free energy of the ion-electron system (eV)
  ---------------------------------------------------
  alpha Z        PSCENC =       604.60654105
  Ewald energy   TEWEN  =    249172.25771524
  -Hartree energ DENC   =   -288580.45698644
  -exchange      EXHF   =      1054.99892819
  -V(xc)+E(xc)   XCENC  =      1067.75466581
  PAW double counting   =     50107.31119047   -50651.38324830
  entropy T*S    EENTRO =        -0.00362319
  eigenvalues    EBANDS =     -7192.96783617
  atomic energy  EATOM  =     44343.42510124
  ---------------------------------------------------
  free energy    TOTEN  =       -74.45745474 eV

  energy without entropy =      -74.45383155  energy(sigma->0) =      -74.45564315
  exchange ACFDT corr.  =        -0.00395181  see jH, gK, PRB 81, 115126


--------------------------------------------------------------------------------------------------------




----------------------------------------- Iteration    1(  10)  ---------------------------------------


    POTLOK:  cpu time    0.1790: real time    0.1789
    SETDIJ:  cpu time    0.1870: real time    0.1871
    TRIAL :  cpu time 1075.4085: real time 1075.8911
    CORREC:  cpu time    0.0010: real time    0.0007
    CHARGE:  cpu time    0.4589: real time    0.4595
    --------------------------------------------
      LOOP:  cpu time 1076.2354: real time 1076.7235

 eigenvalue-minimisations  :     0
 total energy-change (2. order) :-0.6054338E+02  (-0.1058306E+03)
 number of electron     418.0001689 magnetization 
 augmentation part       48.9649430 magnetization 

 Free energy of the ion-electron system (eV)
  ---------------------------------------------------
  alpha Z        PSCENC =       604.60654105
  Ewald energy   TEWEN  =    249172.25771524
  -Hartree energ DENC   =   -290018.66469415
  -exchange      EXHF   =      1060.70301130
  -V(xc)+E(xc)   XCENC  =      1071.66071268
  PAW double counting   =     50318.87661177   -50870.99866084
  entropy T*S    EENTRO =        -0.00000000
  eigenvalues    EBANDS =     -5816.86355333
  atomic energy  EATOM  =     44343.42510124
  ---------------------------------------------------
  free energy    TOTEN  =      -135.00083822 eV

  energy without entropy =     -135.00083822  energy(sigma->0) =     -135.00083822
  exchange ACFDT corr.  =        -0.00403287  see jH, gK, PRB 81, 115126


--------------------------------------------------------------------------------------------------------




----------------------------------------- Iteration    1(  11)  ---------------------------------------


    POTLOK:  cpu time    0.1760: real time    0.1768
    SETDIJ:  cpu time    0.1870: real time    0.1869
    TRIAL :  cpu time 1076.4774: real time 1076.9600
    CORREC:  cpu time    0.0000: real time    0.0007
    CHARGE:  cpu time    0.4609: real time    0.4609
    --------------------------------------------
      LOOP:  cpu time 1077.3022: real time 1077.7914

 eigenvalue-minimisations  :     0
 total energy-change (2. order) :-0.3361309E+02  (-0.1534739E+02)
 number of electron     418.0001696 magnetization 
 augmentation part       49.0985124 magnetization 

 Free energy of the ion-electron system (eV)
  ---------------------------------------------------
  alpha Z        PSCENC =       604.60654105
  Ewald energy   TEWEN  =    249172.25771524
  -Hartree energ DENC   =   -289766.71481163
  -exchange      EXHF   =      1060.27665251
  -V(xc)+E(xc)   XCENC  =      1069.05036806
  PAW double counting   =     50104.71104532   -50630.57514506
  entropy T*S    EENTRO =        -0.00000000
  eigenvalues    EBANDS =     -6125.65139745
  atomic energy  EATOM  =     44343.42510124
  ---------------------------------------------------
  free energy    TOTEN  =      -168.61393072 eV

  energy without entropy =     -168.61393072  energy(sigma->0) =     -168.61393072
  exchange ACFDT corr.  =         0.00000000  see jH, gK, PRB 81, 115126


--------------------------------------------------------------------------------------------------------




----------------------------------------- Iteration    1(  12)  ---------------------------------------


    POTLOK:  cpu time    0.1800: real time    0.1811
    SETDIJ:  cpu time    0.1870: real time    0.1868
    TRIAL :  cpu time 1076.2924: real time 1076.7772
    CORREC:  cpu time    0.0000: real time    0.0007
    CHARGE:  cpu time    0.4589: real time    0.4593
    --------------------------------------------
      LOOP:  cpu time 1077.1193: real time 1077.6108

 eigenvalue-minimisations  :     0
 total energy-change (2. order) :-0.4305990E+01  (-0.8818450E+01)
 number of electron     418.0001699 magnetization 
 augmentation part       49.2271473 magnetization 

 Free energy of the ion-electron system (eV)
  ---------------------------------------------------
  alpha Z        PSCENC =       604.60654105
  Ewald energy   TEWEN  =    249172.25771524
  -Hartree energ DENC   =   -289648.84527567
  -exchange      EXHF   =      1061.10273270
  -V(xc)+E(xc)   XCENC  =      1069.91491059
  PAW double counting   =     50248.39332498   -50782.24605606
  entropy T*S    EENTRO =        -0.00000000
  eigenvalues    EBANDS =     -6241.52891448
  atomic energy  EATOM  =     44343.42510124
  ---------------------------------------------------
  free energy    TOTEN  =      -172.91992040 eV

  energy without entropy =     -172.91992040  energy(sigma->0) =     -172.91992040
  exchange ACFDT corr.  =         0.00000000  see jH, gK, PRB 81, 115126


--------------------------------------------------------------------------------------------------------




----------------------------------------- Iteration    1(  13)  ---------------------------------------


    POTLOK:  cpu time    0.1790: real time    0.1803
    SETDIJ:  cpu time    0.1880: real time    0.1867
    TRIAL :  cpu time 1076.6943: real time 1077.1815
    CORREC:  cpu time    0.0000: real time    0.0049
    CHARGE:  cpu time    0.4589: real time    0.4586
    --------------------------------------------
      LOOP:  cpu time 1077.5212: real time 1078.0248

 eigenvalue-minimisations  :     0
 total energy-change (2. order) :-0.1762015E+01  (-0.3825014E+01)
 number of electron     418.0001692 magnetization 
 augmentation part       48.9800734 magnetization 

 Free energy of the ion-electron system (eV)
  ---------------------------------------------------
  alpha Z        PSCENC =       604.60654105
  Ewald energy   TEWEN  =    249172.25771524
  -Hartree energ DENC   =   -289921.08134854
  -exchange      EXHF   =      1062.13063972
  -V(xc)+E(xc)   XCENC  =      1071.05372479
  PAW double counting   =     50394.33260564   -50935.35275236
  entropy T*S    EENTRO =        -0.00000000
  eigenvalues    EBANDS =     -5966.05416182
  atomic energy  EATOM  =     44343.42510124
  ---------------------------------------------------
  free energy    TOTEN  =      -174.68193504 eV

  energy without entropy =     -174.68193504  energy(sigma->0) =     -174.68193504
  exchange ACFDT corr.  =         0.00000000  see jH, gK, PRB 81, 115126


--------------------------------------------------------------------------------------------------------




----------------------------------------- Iteration    1(  14)  ---------------------------------------


    POTLOK:  cpu time    0.1750: real time    0.1749
    SETDIJ:  cpu time    0.1860: real time    0.1867
    TRIAL :  cpu time 1073.9577: real time 1074.4398
    CORREC:  cpu time    0.0010: real time    0.0007
    CHARGE:  cpu time    0.4609: real time    0.4617
    --------------------------------------------
      LOOP:  cpu time 1074.7816: real time 1075.2772

 eigenvalue-minimisations  :     0
 total energy-change (2. order) :-0.1409509E+01  (-0.7509094E+00)
 number of electron     418.0001694 magnetization 
 augmentation part       49.0372568 magnetization 

 Free energy of the ion-electron system (eV)
  ---------------------------------------------------
  alpha Z        PSCENC =       604.60654105
  Ewald energy   TEWEN  =    249172.25771524
  -Hartree energ DENC   =   -289962.07173324
  -exchange      EXHF   =      1061.21535363
  -V(xc)+E(xc)   XCENC  =      1069.79536657
  PAW double counting   =     50324.21554662   -50856.32922432
  entropy T*S    EENTRO =        -0.00000000
  eigenvalues    EBANDS =     -5933.20611099
  atomic energy  EATOM  =     44343.42510124
  ---------------------------------------------------
  free energy    TOTEN  =      -176.09144420 eV

  energy without entropy =     -176.09144420  energy(sigma->0) =     -176.09144420
  exchange ACFDT corr.  =         0.00000000  see jH, gK, PRB 81, 115126


--------------------------------------------------------------------------------------------------------




----------------------------------------- Iteration    1(  15)  ---------------------------------------


    POTLOK:  cpu time    0.1740: real time    0.1744
    SETDIJ:  cpu time    0.1870: real time    0.1870
    TRIAL :  cpu time 1075.6225: real time 1076.1059
    CORREC:  cpu time    0.0000: real time    0.0007
    CHARGE:  cpu time    0.4599: real time    0.4597
    --------------------------------------------
      LOOP:  cpu time 1076.4444: real time 1076.9343

 eigenvalue-minimisations  :     0
 total energy-change (2. order) :-0.2527205E+00  (-0.4667627E+00)
 number of electron     418.0001694 magnetization 
 augmentation part       49.0506625 magnetization 

 Free energy of the ion-electron system (eV)
  ---------------------------------------------------
  alpha Z        PSCENC =       604.60654105
  Ewald energy   TEWEN  =    249172.25771524
  -Hartree energ DENC   =   -289877.66589299
  -exchange      EXHF   =      1061.50859993
  -V(xc)+E(xc)   XCENC  =      1070.15558723
  PAW double counting   =     50377.73650621   -50912.29481104
  entropy T*S    EENTRO =        -0.00000000
  eigenvalues    EBANDS =     -6016.07351161
  atomic energy  EATOM  =     44343.42510124
  ---------------------------------------------------
  free energy    TOTEN  =      -176.34416474 eV

  energy without entropy =     -176.34416474  energy(sigma->0) =     -176.34416474
  exchange ACFDT corr.  =         0.00000000  see jH, gK, PRB 81, 115126


--------------------------------------------------------------------------------------------------------




----------------------------------------- Iteration    1(  16)  ---------------------------------------


    POTLOK:  cpu time    0.1730: real time    0.1742
    SETDIJ:  cpu time    0.1880: real time    0.1870
    TRIAL :  cpu time 1075.6675: real time 1076.1512
    CORREC:  cpu time    0.0000: real time    0.0008
    CHARGE:  cpu time    0.4589: real time    0.4591
    --------------------------------------------
      LOOP:  cpu time 1076.4883: real time 1076.9790

 eigenvalue-minimisations  :     0
 total energy-change (2. order) :-0.1495624E+00  (-0.1233110E+00)
 number of electron     418.0001693 magnetization 
 augmentation part       49.0015478 magnetization 

 Free energy of the ion-electron system (eV)
  ---------------------------------------------------
  alpha Z        PSCENC =       604.60654105
  Ewald energy   TEWEN  =    249172.25771524
  -Hartree energ DENC   =   -289833.93539253
  -exchange      EXHF   =      1061.61762854
  -V(xc)+E(xc)   XCENC  =      1070.28158877
  PAW double counting   =     50401.66600348   -50937.02395754
  entropy T*S    EENTRO =        -0.00000000
  eigenvalues    EBANDS =     -6059.38895545
  atomic energy  EATOM  =     44343.42510124
  ---------------------------------------------------
  free energy    TOTEN  =      -176.49372719 eV

  energy without entropy =     -176.49372719  energy(sigma->0) =     -176.49372719
  exchange ACFDT corr.  =        -0.00000000  see jH, gK, PRB 81, 115126


--------------------------------------------------------------------------------------------------------




----------------------------------------- Iteration    1(  17)  ---------------------------------------


    POTLOK:  cpu time    0.1740: real time    0.1743
    SETDIJ:  cpu time    0.1870: real time    0.1867
    TRIAL :  cpu time 1075.6725: real time 1076.3638
    CORREC:  cpu time    0.0000: real time    0.1684
    CHARGE:  cpu time    0.4589: real time    0.4589
    --------------------------------------------
      LOOP:  cpu time 1076.4933: real time 1077.3590

 eigenvalue-minimisations  :     0
 total energy-change (2. order) :-0.5581497E-01  (-0.5883906E-01)
 number of electron     418.0001694 magnetization 
 augmentation part       49.0218039 magnetization 

 Free energy of the ion-electron system (eV)
  ---------------------------------------------------
  alpha Z        PSCENC =       604.60654105
  Ewald energy   TEWEN  =    249172.25771524
  -Hartree energ DENC   =   -289841.57698293
  -exchange      EXHF   =      1061.42991556
  -V(xc)+E(xc)   XCENC  =      1070.03594810
  PAW double counting   =     50386.15206897   -50919.80510823
  entropy T*S    EENTRO =        -0.00000000
  eigenvalues    EBANDS =     -6053.07474117
  atomic energy  EATOM  =     44343.42510124
  ---------------------------------------------------
  free energy    TOTEN  =      -176.54954216 eV

  energy without entropy =     -176.54954216  energy(sigma->0) =     -176.54954216
  exchange ACFDT corr.  =         0.00000000  see jH, gK, PRB 81, 115126


--------------------------------------------------------------------------------------------------------




----------------------------------------- Iteration    1(  18)  ---------------------------------------


    POTLOK:  cpu time    0.2050: real time    0.2072
    SETDIJ:  cpu time    0.1870: real time    0.1866
    TRIAL :  cpu time 1076.8363: real time 1077.3225
    CORREC:  cpu time    0.0010: real time    0.0007
    CHARGE:  cpu time    0.4589: real time    0.4595
    --------------------------------------------
      LOOP:  cpu time 1077.6912: real time 1078.3995

 eigenvalue-minimisations  :     0
 total energy-change (2. order) :-0.2025800E-01  (-0.1819163E-01)
 number of electron     418.0001694 magnetization 
 augmentation part       49.0248537 magnetization 

 Free energy of the ion-electron system (eV)
  ---------------------------------------------------
  alpha Z        PSCENC =       604.60654105
  Ewald energy   TEWEN  =    249172.25771524
  -Hartree energ DENC   =   -289865.14986574
  -exchange      EXHF   =      1061.53301273
  -V(xc)+E(xc)   XCENC  =      1070.16336582
  PAW double counting   =     50399.25118432   -50933.70128649
  entropy T*S    EENTRO =        -0.00000000
  eigenvalues    EBANDS =     -6028.95556833
  atomic energy  EATOM  =     44343.42510124
  ---------------------------------------------------
  free energy    TOTEN  =      -176.56980016 eV

  energy without entropy =     -176.56980016  energy(sigma->0) =     -176.56980016
  exchange ACFDT corr.  =         0.00000000  see jH, gK, PRB 81, 115126


--------------------------------------------------------------------------------------------------------




----------------------------------------- Iteration    1(  19)  ---------------------------------------


    POTLOK:  cpu time    0.1880: real time    0.1892
    SETDIJ:  cpu time    0.1880: real time    0.1868
    TRIAL :  cpu time 1075.8894: real time 1076.3758
    CORREC:  cpu time    0.0000: real time    0.0008
    CHARGE:  cpu time    0.4599: real time    0.4599
    --------------------------------------------
      LOOP:  cpu time 1076.7263: real time 1077.2197

 eigenvalue-minimisations  :     0
 total energy-change (2. order) :-0.9228445E-02  (-0.9828189E-02)
 number of electron     418.0001694 magnetization 
 augmentation part       49.0182287 magnetization 

 Free energy of the ion-electron system (eV)
  ---------------------------------------------------
  alpha Z        PSCENC =       604.60654105
  Ewald energy   TEWEN  =    249172.25771524
  -Hartree energ DENC   =   -289859.25470124
  -exchange      EXHF   =      1061.52120297
  -V(xc)+E(xc)   XCENC  =      1070.15980378
  PAW double counting   =     50401.62512790   -50936.16644511
  entropy T*S    EENTRO =        -0.00000000
  eigenvalues    EBANDS =     -6034.75337444
  atomic energy  EATOM  =     44343.42510124
  ---------------------------------------------------
  free energy    TOTEN  =      -176.57902860 eV

  energy without entropy =     -176.57902860  energy(sigma->0) =     -176.57902860
  exchange ACFDT corr.  =        -0.00000000  see jH, gK, PRB 81, 115126


--------------------------------------------------------------------------------------------------------




----------------------------------------- Iteration    1(  20)  ---------------------------------------


    POTLOK:  cpu time    0.1700: real time    0.1707
    SETDIJ:  cpu time    0.1870: real time    0.1868
    TRIAL :  cpu time 1075.5715: real time 1076.0566
    CORREC:  cpu time    0.0000: real time    0.0007
    CHARGE:  cpu time    0.4599: real time    0.4597
    --------------------------------------------
      LOOP:  cpu time 1076.3894: real time 1076.8811

 eigenvalue-minimisations  :     0
 total energy-change (2. order) :-0.3925842E-02  (-0.3000803E-02)
 number of electron     418.0001694 magnetization 
 augmentation part       49.0219775 magnetization 

 Free energy of the ion-electron system (eV)
  ---------------------------------------------------
  alpha Z        PSCENC =       604.60654105
  Ewald energy   TEWEN  =    249172.25771524
  -Hartree energ DENC   =   -289848.67204058
  -exchange      EXHF   =      1061.46924632
  -V(xc)+E(xc)   XCENC  =      1070.10359738
  PAW double counting   =     50398.40172639   -50932.69334994
  entropy T*S    EENTRO =        -0.00000000
  eigenvalues    EBANDS =     -6045.48149155
  atomic energy  EATOM  =     44343.42510124
  ---------------------------------------------------
  free energy    TOTEN  =      -176.58295444 eV

  energy without entropy =     -176.58295444  energy(sigma->0) =     -176.58295444
  exchange ACFDT corr.  =         0.00000000  see jH, gK, PRB 81, 115126


--------------------------------------------------------------------------------------------------------




----------------------------------------- Iteration    1(  21)  ---------------------------------------


    POTLOK:  cpu time    0.1680: real time    0.1687
    SETDIJ:  cpu time    0.1870: real time    0.1869
    TRIAL :  cpu time 1075.9464: real time 1076.4327
    CORREC:  cpu time    0.0000: real time    0.0007
    CHARGE:  cpu time    0.4589: real time    0.4586
    --------------------------------------------
      LOOP:  cpu time 1076.7613: real time 1077.2736

 eigenvalue-minimisations  :     0
 total energy-change (2. order) :-0.1674762E-02  (-0.1620077E-02)
 number of electron     418.0001694 magnetization 
 augmentation part       49.0221102 magnetization 

 Free energy of the ion-electron system (eV)
  ---------------------------------------------------
  alpha Z        PSCENC =       604.60654105
  Ewald energy   TEWEN  =    249172.25771524
  -Hartree energ DENC   =   -289850.68391992
  -exchange      EXHF   =      1061.48796382
  -V(xc)+E(xc)   XCENC  =      1070.12652759
  PAW double counting   =     50399.88607872   -50934.34579015
  entropy T*S    EENTRO =        -0.00000000
  eigenvalues    EBANDS =     -6043.34484681
  atomic energy  EATOM  =     44343.42510124
  ---------------------------------------------------
[...]
     77      -9.6133      2.00000
     78      -9.6133      2.00000
     79      -9.6058      2.00000
     80      -9.6056      2.00000
     81      -9.5599      2.00000
     82      -9.5599      2.00000
     83      -9.5337      2.00000
     84      -9.5305      2.00000
     85      -9.5007      2.00000
     86      -9.4995      2.00000
     87      -9.4774      2.00000
     88      -9.4774      2.00000
     89      -9.4716      2.00000
     90      -9.4716      2.00000
     91      -9.4585      2.00000
     92      -9.4550      2.00000
     93      -9.4550      2.00000
     94      -9.4522      2.00000
     95      -9.4317      2.00000
     96      -9.4302      2.00000
     97      -9.3957      2.00000
     98      -9.3910      2.00000
     99      -9.3907      2.00000
    100      -9.3862      2.00000
    101      -8.7166      2.00000
    102      -8.6999      2.00000
    103      -8.6713      2.00000
    104      -8.4893      2.00000
    105      -8.4780      2.00000
    106      -7.2562      2.00000
    107      -7.1797      2.00000
    108      -7.0100      2.00000
    109      -6.7844      2.00000
    110      -6.7844      2.00000
    111      -6.7010      2.00000
    112      -6.6952      2.00000
    113      -6.6952      2.00000
    114      -6.5708      2.00000
    115      -6.5708      2.00000
    116      -6.4634      2.00000
    117      -6.4209      2.00000
    118      -6.4209      2.00000
    119      -6.4177      2.00000
    120      -6.3922      2.00000
    121      -6.3922      2.00000
    122      -6.2220      2.00000
    123      -6.1923      2.00000
    124      -6.1923      2.00000
    125      -6.0470      2.00000
    126      -6.0328      2.00000
    127      -6.0328      2.00000
    128      -5.9914      2.00000
    129      -5.8790      2.00000
    130      -5.8077      2.00000
    131      -5.8077      2.00000
    132      -5.5783      2.00000
    133      -5.5643      2.00000
    134      -5.5643      2.00000
    135      -5.5345      2.00000
    136      -5.5240      2.00000
    137      -5.3295      2.00000
    138      -5.3253      2.00000
    139      -5.3029      2.00000
    140      -5.2601      2.00000
    141      -5.2601      2.00000
    142      -5.1595      2.00000
    143      -5.1564      2.00000
    144      -5.1171      2.00000
    145      -5.1171      2.00000
    146      -5.0172      2.00000
    147      -5.0172      2.00000
    148      -4.9451      2.00000
    149      -4.9451      2.00000
    150      -4.8881      2.00000
    151      -4.8881      2.00000
    152      -4.8695      2.00000
    153      -4.8626      2.00000
    154      -4.8597      2.00000
    155      -4.8597      2.00000
    156      -4.8422      2.00000
    157      -4.7932      2.00000
    158      -4.7839      2.00000
    159      -4.7839      2.00000
    160      -4.7761      2.00000
    161      -4.7746      2.00000
    162      -4.7746      2.00000
    163      -4.7720      2.00000
    164      -4.7631      2.00000
    165      -4.7593      2.00000
    166      -4.7222      2.00000
    167      -4.7217      2.00000
    168      -4.7060      2.00000
    169      -4.7060      2.00000
    170      -4.6323      2.00000
    171      -4.6318      2.00000
    172      -4.6291      2.00000
    173      -4.6291      2.00000
    174      -4.5798      2.00000
    175      -4.5779      2.00000
    176      -4.5694      2.00000
    177      -4.5694      2.00000
    178      -4.5593      2.00000
    179      -4.3443      2.00000
    180      -4.3443      2.00000
    181      -4.1243      2.00000
    182      -4.1243      2.00000
    183      -3.9868      2.00000
    184      -3.9868      2.00000
    185      -3.4153      2.00000
    186      -3.4153      2.00000
    187      -3.4133      2.00000
    188      -3.4133      2.00000
    189      -3.3987      2.00000
    190      -3.3681      2.00000
    191      -3.2808      2.00000
    192      -3.2315      2.00000
    193      -3.2315      2.00000
    194      -3.2203      2.00000
    195      -3.2203      2.00000
    196      -3.1891      2.00000
    197      -3.1452      2.00000
    198      -3.1452      2.00000
    199      -3.0873      2.00000
    200      -3.0873      2.00000
    201      -3.0686      2.00000
    202      -3.0666      2.00000
    203      -3.0658      2.00000
    204      -3.0204      2.00000
    205      -2.7453      2.00000
    206      -2.5940      2.00000
    207      -2.2672      2.00000
    208      -2.1139      2.00000
    209      -2.0895      2.00000
    210       0.8397      0.00000
    211       0.8398      0.00000
    212       1.7330      0.00000
    213       1.7413      0.00000
    214       1.7488      0.00000
    215       3.3707      0.00000
    216       3.3869      0.00000
    217       3.6699      0.00000
    218       3.6877      0.00000
    219       4.2620      0.00000
    220       4.3341      0.00000
    221       4.6878      0.00000
    222       4.7852      0.00000
    223       4.7852      0.00000
    224       4.8059      0.00000
    225       4.8059      0.00000
    226       4.9767      0.00000
    227       4.9903      0.00000
    228       5.1958      0.00000
    229       5.2107      0.00000
    230       5.2343      0.00000
    231       5.3950      0.00000
    232       5.4193      0.00000
    233       5.4680      0.00000
    234       5.5077      0.00000
    235       5.5089      0.00000
    236       5.5300      0.00000
    237       5.5636      0.00000
    238       5.6096      0.00000
    239       5.6669      0.00000
    240       5.7167      0.00000
    241       5.7407      0.00000
    242       5.7586      0.00000
    243       5.8071      0.00000
    244       5.8095      0.00000
    245       5.8680      0.00000
    246       5.9118      0.00000
    247       5.9338      0.00000
    248       5.9909      0.00000
    249       6.0864      0.00000
    250       6.1668      0.00000
    251       6.1734      0.00000
    252       6.2307      0.00000
    253       6.3242      0.00000
    254       6.3807      0.00000
    255       6.4032      0.00000
    256       6.4339      0.00000


--------------------------------------------------------------------------------------------------------


 soft charge-density along one line, spin component           1
         0         1         2         3         4         5         6         7         8         9
 total charge-density along one line
 
 pseudopotential strength for first ion, spin component:           1
 47.292   0.000  49.633  -0.000   0.000   0.000   0.011   0.000  -0.000   0.000   0.000   0.000   0.014   0.000  -0.000   0.000
 49.633   0.000  52.092  -0.000   0.000   0.000   0.012   0.000  -0.000   0.000   0.000   0.000   0.015   0.000  -0.000   0.000
  0.000  -0.000   0.000  -0.000   9.047   0.000   0.000   0.000  -0.000  -0.000  11.226   0.000   0.000   0.000  -0.000  -0.000
  0.011  -0.000   0.012  -0.000   0.000  -0.000   9.063   0.000  -0.000   0.000   0.000  -0.000  11.245   0.000  -0.000   0.000
 -0.000  -0.000  -0.000  -0.000  -0.000   0.000  -0.000  -0.000   9.047   0.000  -0.000   0.000  -0.000  -0.000  11.226   0.000
  0.000  -0.000   0.000  -0.000  11.226  -0.000   0.000   0.000  -0.000  -0.000  13.945   0.000   0.000   0.000  -0.000  -0.000
  0.014  -0.000   0.015  -0.000   0.000  -0.000  11.245  -0.000  -0.000   0.000   0.000  -0.000  13.967  -0.000  -0.000   0.000
 -0.000  -0.000  -0.000  -0.000  -0.000   0.000  -0.000  -0.000  11.226  -0.000  -0.000   0.000  -0.000  -0.000  13.945   0.000
 total augmentation occupancy for first ion, spin component:           1
  4.353  -3.164  -0.000  -0.962   0.000   0.000   0.298  -0.000
 -3.164   3.820   0.000   0.926  -0.000  -0.000  -0.325   0.000
 -0.000   0.000   3.406   0.000  -0.000  -0.764  -0.000   0.000
 -0.962   0.926   0.000   4.744  -0.000  -0.000  -1.708   0.000
  0.000  -0.000  -0.000  -0.000   3.406  -0.000   0.000  -0.764
  0.000  -0.000  -0.764  -0.000  -0.000   0.210   0.000  -0.000
  0.298  -0.325  -0.000  -1.708   0.000   0.000   0.698  -0.000
 -0.000   0.000   0.000   0.000  -0.764  -0.000  -0.000   0.210


------------------------ aborting loop because EDIFF is reached ----------------------------------------


    FORLOC:  cpu time    0.0180: real time    0.0179
    FORHF :  cpu time 1297.1628: real time 1297.7385
    FORNL :  cpu time    0.2560: real time    0.2556
    FORCOR:  cpu time    0.3559: real time    0.3564
    OFIELD:  cpu time    0.0000: real time    0.0002

 VOLUME and BASIS-vectors are now :
 -----------------------------------------------------------------------------
  energy-cutoff  :      500.00
  volume of cell :     2300.79
      direct lattice vectors                 reciprocal lattice vectors
     7.135900021  0.000000000  0.000000000     0.140136493  0.000000000  0.000000000
     0.000000000  7.135900021  0.000000000     0.000000000  0.140136493  0.000000000
     0.000000000  0.000000000 45.183399200     0.000000000  0.000000000  0.022132022

  length of vectors
     7.135900021  7.135900021 45.183399200     0.140136493  0.140136493  0.022132022


 FORCES acting on ions:
    Electron-Ion                     Ewald-Force                    Non-Local-Force
 -----------------------------------------------------------------------------------------------
   -.145E-05 0.357E-06 -.607E+03   0.240E-05 -.116E-05 0.606E+03   0.165E-23 0.000E+00 0.113E+01
   -.150E-05 0.333E-06 0.607E+03   0.240E-05 -.116E-05 -.606E+03   -.165E-23 0.000E+00 -.113E+01
   -.150E-05 0.301E-06 -.155E+04   0.239E-05 -.116E-05 0.155E+04   0.000E+00 0.000E+00 -.962E+00
   -.143E-05 0.380E-06 0.155E+04   0.239E-05 -.116E-05 -.155E+04   0.000E+00 0.000E+00 0.962E+00
   -.157E-05 0.402E-06 -.168E+04   0.261E-05 -.147E-05 0.168E+04   0.000E+00 0.000E+00 0.117E+01
   -.163E-05 0.468E-06 0.168E+04   0.261E-05 -.147E-05 -.168E+04   0.000E+00 0.000E+00 -.117E+01
   -.152E-05 0.477E-06 -.471E+03   0.262E-05 -.148E-05 0.471E+03   0.827E-24 0.000E+00 -.113E+01
   -.164E-05 0.397E-06 0.471E+03   0.262E-05 -.148E-05 -.471E+03   -.827E-24 0.000E+00 0.113E+01
   -.544E+02 -.544E+02 -.108E+04   0.538E+02 0.538E+02 0.108E+04   0.827E+00 0.827E+00 -.102E-01
   0.544E+02 0.544E+02 0.108E+04   -.538E+02 -.538E+02 -.108E+04   -.827E+00 -.827E+00 0.102E-01
   0.544E+02 0.544E+02 -.108E+04   -.538E+02 -.538E+02 0.108E+04   -.827E+00 -.827E+00 -.102E-01
   -.544E+02 -.544E+02 0.108E+04   0.538E+02 0.538E+02 -.108E+04   0.827E+00 0.827E+00 0.102E-01
   0.544E+02 -.544E+02 -.108E+04   -.538E+02 0.538E+02 0.108E+04   -.827E+00 0.827E+00 -.102E-01
   -.544E+02 0.544E+02 0.108E+04   0.538E+02 -.538E+02 -.108E+04   0.827E+00 -.827E+00 0.102E-01
   -.544E+02 0.544E+02 -.108E+04   0.538E+02 -.538E+02 0.108E+04   0.827E+00 -.827E+00 -.102E-01
   0.544E+02 -.544E+02 0.108E+04   -.538E+02 0.538E+02 -.108E+04   -.827E+00 0.827E+00 0.102E-01
   -.544E+02 -.544E+02 -.214E+04   0.537E+02 0.537E+02 0.214E+04   0.102E+01 0.102E+01 0.853E+00
   0.544E+02 0.544E+02 0.214E+04   -.537E+02 -.537E+02 -.214E+04   -.102E+01 -.102E+01 -.853E+00
   0.544E+02 0.544E+02 -.214E+04   -.537E+02 -.537E+02 0.214E+04   -.102E+01 -.102E+01 0.853E+00
   -.544E+02 -.544E+02 0.214E+04   0.537E+02 0.537E+02 -.214E+04   0.102E+01 0.102E+01 -.853E+00
   0.544E+02 -.544E+02 -.214E+04   -.537E+02 0.537E+02 0.214E+04   -.102E+01 0.102E+01 0.853E+00
   -.544E+02 0.544E+02 0.214E+04   0.537E+02 -.537E+02 -.214E+04   0.102E+01 -.102E+01 -.853E+00
   -.544E+02 0.544E+02 -.214E+04   0.537E+02 -.537E+02 0.214E+04   0.102E+01 -.102E+01 0.853E+00
   0.544E+02 -.544E+02 0.214E+04   -.537E+02 0.537E+02 -.214E+04   -.102E+01 0.102E+01 -.853E+00
   -.544E+02 -.544E+02 0.192E-04   0.538E+02 0.538E+02 -.239E-04   0.807E+00 0.807E+00 0.000E+00
   0.544E+02 0.544E+02 0.193E-04   -.538E+02 -.538E+02 -.239E-04   -.807E+00 -.807E+00 0.000E+00
   0.544E+02 -.544E+02 0.193E-04   -.538E+02 0.538E+02 -.239E-04   -.807E+00 0.807E+00 0.000E+00
   -.544E+02 0.544E+02 0.192E-04   0.538E+02 -.538E+02 -.239E-04   0.807E+00 -.807E+00 0.000E+00
   -.141E-04 0.375E-06 -.200E+04   0.354E-04 -.107E-04 0.200E+04   0.000E+00 0.000E+00 0.139E+00
   -.142E-04 0.383E-06 0.200E+04   0.354E-04 -.107E-04 -.200E+04   0.000E+00 0.000E+00 -.139E+00
   -.138E-06 0.967E-07 -.404E+04   0.160E-06 -.164E-06 0.403E+04   0.000E+00 0.207E-24 0.272E+01
   -.139E-06 0.992E-07 0.404E+04   0.160E-06 -.164E-06 -.403E+04   0.000E+00 0.000E+00 -.272E+01
   -.283E-06 0.199E-06 0.295E-04   0.318E-06 -.326E-06 -.619E-05   0.000E+00 0.000E+00 0.000E+00
   0.123E-05 -.101E-05 -.693E+03   -.156E-05 0.308E-05 0.693E+03   0.000E+00 0.000E+00 0.967E-03
   0.121E-05 -.102E-05 0.693E+03   -.156E-05 0.308E-05 -.693E+03   0.000E+00 0.827E-24 -.967E-03
   0.124E-05 -.111E-05 -.693E+03   -.181E-05 0.334E-05 0.693E+03   0.000E+00 -.827E-24 0.967E-03
   0.120E-05 -.113E-05 0.693E+03   -.181E-05 0.334E-05 -.693E+03   0.000E+00 0.827E-24 -.967E-03
   0.121E-05 -.113E-05 -.208E+04   -.182E-05 0.335E-05 0.208E+04   0.000E+00 0.165E-23 -.133E+00
   0.123E-05 -.112E-05 0.208E+04   -.182E-05 0.335E-05 -.208E+04   0.000E+00 -.165E-23 0.133E+00
   0.122E-05 -.102E-05 -.208E+04   -.156E-05 0.309E-05 0.208E+04   0.000E+00 0.000E+00 -.133E+00
   0.123E-05 -.101E-05 0.208E+04   -.156E-05 0.309E-05 -.208E+04   0.000E+00 0.000E+00 0.133E+00
   -.649E-06 -.652E-06 -.528E+04   0.255E-06 -.165E-06 0.528E+04   0.132E-22 0.199E-22 0.309E+01
   0.830E-07 0.833E-06 0.528E+04   0.255E-06 -.165E-06 -.528E+04   -.132E-22 0.463E-22 -.309E+01
   -.216E-04 0.539E-06 -.262E+04   0.508E-04 -.164E-04 0.262E+04   0.000E+00 0.000E+00 0.635E-02
   -.194E-04 0.260E-07 0.262E+04   0.508E-04 -.164E-04 -.262E+04   0.000E+00 0.000E+00 -.635E-02
   -.245E-06 0.468E-06 0.316E-04   0.508E-06 -.329E-06 -.828E-05   0.000E+00 0.000E+00 0.000E+00
 -----------------------------------------------------------------------------------------------
   -.240E-03 -.308E-03 0.614E-02   -.374E-13 -.315E-14 -.563E-11   0.555E-15 0.111E-15 0.000E+00
 
 
 POSITION                                       TOTAL-FORCE (eV/Angst)
 -----------------------------------------------------------------------------------
      0.00000      0.00000     25.07227        -0.000000      0.000000      0.475410
      0.00000      0.00000     20.11113        -0.000000      0.000000     -0.475410
      0.00000      0.00000     30.20510        -0.000000      0.000000     -0.397987
      0.00000      0.00000     14.97830        -0.000000      0.000000      0.397987
      3.56795      3.56795     30.11925        -0.000000      0.000000      0.492610
      3.56795      3.56795     15.06415        -0.000000      0.000000     -0.492610
      3.56795      3.56795     25.15812        -0.000000      0.000000     -0.475218
      3.56795      3.56795     20.02528        -0.000000      0.000000      0.475218
      5.32267      5.32267     27.63869         0.349331      0.349331     -0.011445
      1.81323      1.81323     17.54471        -0.349331     -0.349331      0.011445
      1.81323      1.81323     27.63869        -0.349331     -0.349331     -0.011445
      5.32267      5.32267     17.54471         0.349331      0.349331      0.011445
      1.81323      5.32267     27.63869        -0.349331      0.349331     -0.011445
      5.32267      1.81323     17.54471         0.349331     -0.349331      0.011445
      5.32267      1.81323     27.63869         0.349331     -0.349331     -0.011445
      1.81323      5.32267     17.54471        -0.349331      0.349331      0.011445
      1.75472      1.75472     32.68115         0.421068      0.421068      0.382710
      5.38118      5.38118     12.50225        -0.421068     -0.421068     -0.382710
      5.38118      5.38118     32.68115        -0.421068     -0.421068      0.382710
      1.75472      1.75472     12.50225         0.421068      0.421068     -0.382710
      5.38118      1.75472     32.68115        -0.421068      0.421068      0.382710
      1.75472      5.38118     12.50225         0.421068     -0.421068     -0.382710
      1.75472      5.38118     32.68115         0.421068     -0.421068      0.382710
      5.38118      1.75472     12.50225        -0.421068      0.421068     -0.382710
      1.75472      1.75472     22.59170         0.336200      0.336200     -0.000000
      5.38118      5.38118     22.59170        -0.336200     -0.336200     -0.000000
      5.38118      1.75472     22.59170        -0.336200      0.336200     -0.000000
      1.75472      5.38118     22.59170         0.336200     -0.336200     -0.000000
      0.00000      0.00000     27.63869        -0.000000      0.000000     -0.047193
      0.00000      0.00000     17.54471        -0.000000     -0.000000      0.047193
      3.56795      3.56795     32.68115        -0.000000      0.000000     -1.019405
      3.56795      3.56795     12.50225        -0.000000      0.000000      1.019405
      3.56795      3.56795     22.59170        -0.000000      0.000000     -0.000000
      0.00000      3.56795     25.11293        -0.000000      0.000000      0.009491
      0.00000      3.56795     20.07047        -0.000000      0.000000     -0.009491
      3.56795      0.00000     25.11293        -0.000000      0.000000      0.009491
      3.56795      0.00000     20.07047        -0.000000      0.000000     -0.009491
      3.56795      0.00000     30.15992        -0.000000      0.000000      0.068399
      3.56795      0.00000     15.02348        -0.000000      0.000000     -0.068399
      0.00000      3.56795     30.15992        -0.000000      0.000000      0.068399
      0.00000      3.56795     15.02348        -0.000000      0.000000     -0.068399
      0.00000      0.00000     32.68115        -0.000000      0.000000     -0.172489
      0.00000      0.00000     12.50225        -0.000000      0.000000      0.172489
      3.56795      3.56795     27.63869        -0.000000     -0.000000      0.019791
      3.56795      3.56795     17.54471        -0.000000     -0.000000     -0.019791
      0.00000      0.00000     22.59170        -0.000000      0.000000     -0.000000
 -----------------------------------------------------------------------------------
    total drift:                               -0.000240     -0.000308      0.006141


--------------------------------------------------------------------------------------------------------



  FREE ENERGIE OF THE ION-ELECTRON SYSTEM (eV)
  ---------------------------------------------------
  free  energy   TOTEN  =      -176.58637233 eV

  energy  without entropy=     -176.58637233  energy(sigma->0) =     -176.58637233
 


--------------------------------------------------------------------------------------------------------


    POTLOK:  cpu time    0.3569: real time    0.3576


--------------------------------------------------------------------------------------------------------


 writing wavefunctions
     LOOP+:  cpu time43328.5621: real time43378.2578
    4ORBIT:  cpu time    0.0000: real time    0.0000

 total amount of memory used by VASP on root node    69613. kBytes
========================================================================

   base      :      30000. kBytes
   nonlr-proj:      10130. kBytes
   fftplans  :       4349. kBytes
   grid      :       6080. kBytes
   one-center:         62. kBytes
   HF        :        194. kBytes
   wavefun   :      18798. kBytes
 
  
  
 General timing and accounting informations for this job:
 ========================================================
  
                  Total CPU time used (sec):    43399.289
                            User time (sec):    43269.364
                          System time (sec):      129.925
                         Elapsed time (sec):    45387.931
  
                   Maximum memory used (kb):      275584.
                   Average memory used (kb):           0.
  
                          Minor page faults:     12442286
                          Major page faults:            4
                 Voluntary context switches:      1948236
