<?xml version="1.0" encoding="ISO-8859-1"?>
<modeling>
 <generator>
  <i name="program" type="string">vasp </i>
  <i name="version" type="string">5.4.1  </i>
  <i name="subversion" type="string">05Feb16 (build Feb 10 2016 17:22:43) complex                          parallel </i>
  <i name="platform" type="string">IFC91_ompi </i>
  <i name="date" type="string">2017 04 18 </i>
  <i name="time" type="string">12:11:54 </i>
 </generator>
 <incar>
  <i type="string" name="SYSTEM"> Screening bandgap</i>
  <i type="string" name="PREC">normal</i>
  <i type="string" name="ALGO"> D</i>
  <i type="int" name="ISPIN">     1</i>
  <i name="AMIN">      0.01000000</i>
  <i type="int" name="ICHARG">     2</i>
  <i name="EDIFF">      0.00000100</i>
  <i type="int" name="ISYM">     3</i>
  <i name="ENCUT">    500.00000000</i>
  <i type="string" name="LREAL"> Auto</i>
  <i type="logical" name="LPLANE"> T  </i>
  <i name="TIME">      0.40000000</i>
  <i type="int" name="ISMEAR">     0</i>
  <i name="SIGMA">      0.05000000</i>
  <i type="logical" name="LVTOT"> T  </i>
  <v type="int" name="KPOINT_BSE">    -1     0     0     0</v>
  <i type="logical" name="LHFCALC"> T  </i>
  <i type="int" name="LMAXFOCK">     4</i>
  <i name="HFSCREEN">      0.20000000</i>
  <i type="string" name="PRECFOCK">normal</i>
 </incar>
 <kpoints>
  <generation param="Gamma">
   <v type="int" name="divisions">       4        4        1 </v>
   <v name="usershift">      0.00000000       0.00000000       0.00000000 </v>
   <v name="genvec1">      0.25000000       0.00000000       0.00000000 </v>
   <v name="genvec2">      0.00000000       0.25000000       0.00000000 </v>
   <v name="genvec3">      0.00000000       0.00000000       1.00000000 </v>
   <v name="shift">      0.00000000       0.00000000       0.00000000 </v>
  </generation>
  <varray name="kpointlist" >
   <v>       0.00000000       0.00000000       0.00000000 </v>
   <v>       0.25000000       0.00000000       0.00000000 </v>
   <v>       0.50000000       0.00000000       0.00000000 </v>
   <v>       0.25000000       0.25000000       0.00000000 </v>
   <v>       0.50000000       0.25000000       0.00000000 </v>
   <v>       0.50000000       0.50000000       0.00000000 </v>
  </varray>
  <varray name="weights" >
   <v>       0.06250000 </v>
   <v>       0.25000000 </v>
   <v>       0.12500000 </v>
   <v>       0.25000000 </v>
   <v>       0.25000000 </v>
   <v>       0.06250000 </v>
  </varray>
 </kpoints>
 <parameters>
  <separator name="general" >
   <i type="string" name="SYSTEM">Screening bandgap</i>
   <i type="logical" name="LCOMPAT"> F  </i>
  </separator>
  <separator name="electronic" >
   <i type="string" name="PREC">normal</i>
   <i name="ENMAX">    500.00000000</i>
   <i name="ENAUG">    758.23300000</i>
   <i name="EDIFF">      0.00000100</i>
   <i type="int" name="IALGO">    53</i>
   <i type="int" name="IWAVPR">    10</i>
   <i type="int" name="NBANDS">   256</i>
   <i name="NELECT">    418.00000000</i>
   <i type="int" name="TURBO">     0</i>
   <i type="int" name="IRESTART">     0</i>
   <i type="int" name="NREBOOT">     0</i>
   <i type="int" name="NMIN">     0</i>
   <i name="EREF">      0.00000000</i>
   <separator name="electronic smearing" >
    <i type="int" name="ISMEAR">     0</i>
    <i name="SIGMA">      0.05000000</i>
    <i name="KSPACING">      0.50000000</i>
    <i type="logical" name="KGAMMA"> T  </i>
   </separator>
   <separator name="electronic projectors" >
    <i type="logical" name="LREAL"> T  </i>
    <v name="ROPT">     -0.00050000     -0.00050000     -0.00050000     -0.00050000</v>
    <i type="int" name="LMAXPAW">  -100</i>
    <i type="int" name="LMAXMIX">     2</i>
    <i type="logical" name="NLSPLINE"> F  </i>
   </separator>
   <separator name="electronic startup" >
    <i type="int" name="ISTART">     1</i>
    <i type="int" name="ICHARG">     2</i>
    <i type="int" name="INIWAV">     1</i>
   </separator>
   <separator name="electronic spin" >
    <i type="int" name="ISPIN">     1</i>
    <i type="logical" name="LNONCOLLINEAR"> F  </i>
    <v name="MAGMOM">      1.00000000      1.00000000      1.00000000      1.00000000      1.00000000      1.00000000      1.00000000      1.00000000      1.00000000      1.00000000      1.00000000      1.00000000      1.00000000      1.00000000      1.00000000      1.00000000      1.00000000      1.00000000      1.00000000      1.00000000
      1.00000000      1.00000000      1.00000000      1.00000000      1.00000000      1.00000000      1.00000000      1.00000000      1.00000000      1.00000000      1.00000000      1.00000000      1.00000000      1.00000000      1.00000000      1.00000000      1.00000000      1.00000000      1.00000000      1.00000000
      1.00000000      1.00000000      1.00000000      1.00000000      1.00000000      1.00000000</v>
    <i name="NUPDOWN">     -1.00000000</i>
    <i type="logical" name="LSORBIT"> F  </i>
    <v name="SAXIS">      0.00000000      0.00000000      1.00000000</v>
    <i type="logical" name="LSPIRAL"> F  </i>
    <v name="QSPIRAL">      0.00000000      0.00000000      0.00000000</v>
    <i type="logical" name="LZEROZ"> F  </i>
   </separator>
   <separator name="electronic exchange-correlation" >
    <i type="logical" name="LASPH"> F  </i>
    <i type="logical" name="LMETAGGA"> F  </i>
   </separator>
   <separator name="electronic convergence" >
    <i type="int" name="NELM">    60</i>
    <i type="int" name="NELMDL">     0</i>
    <i type="int" name="NELMIN">     2</i>
    <i name="ENINI">    500.00000000</i>
    <separator name="electronic convergence detail" >
     <i type="logical" name="LDIAG"> T  </i>
     <i type="logical" name="LSUBROT"> F  </i>
     <i name="WEIMIN">      0.00000000</i>
     <i name="EBREAK">      0.00000000</i>
     <i name="DEPER">      0.30000000</i>
     <i type="int" name="NRMM">     4</i>
     <i name="TIME">      0.40000000</i>
    </separator>
   </separator>
   <separator name="electronic mixer" >
    <i name="AMIX">      0.40000000</i>
    <i name="BMIX">      1.00000000</i>
    <i name="AMIN">      0.01000000</i>
    <i name="AMIX_MAG">      1.60000000</i>
    <i name="BMIX_MAG">      1.00000000</i>
    <separator name="electronic mixer details" >
     <i type="int" name="IMIX">     4</i>
     <i type="logical" name="MIXFIRST"> F  </i>
     <i type="int" name="MAXMIX">   -45</i>
     <i name="WC">    100.00000000</i>
     <i type="int" name="INIMIX">     1</i>
     <i type="int" name="MIXPRE">     1</i>
     <i type="int" name="MREMOVE">     5</i>
    </separator>
   </separator>
   <separator name="electronic dipolcorrection" >
    <i type="logical" name="LDIPOL"> F  </i>
    <i type="logical" name="LMONO"> F  </i>
    <i type="int" name="IDIPOL">     0</i>
    <i name="EPSILON">      1.00000000</i>
    <v name="DIPOL">   -100.00000000   -100.00000000   -100.00000000</v>
    <i name="EFIELD">      0.00000000</i>
   </separator>
  </separator>
  <separator name="grids" >
   <i type="int" name="NGX">    40</i>
   <i type="int" name="NGY">    40</i>
   <i type="int" name="NGZ">   250</i>
   <i type="int" name="NGXF">    80</i>
   <i type="int" name="NGYF">    80</i>
   <i type="int" name="NGZF">   500</i>
   <i type="logical" name="ADDGRID"> F  </i>
  </separator>
  <separator name="ionic" >
   <i type="int" name="NSW">     0</i>
   <i type="int" name="IBRION">    -1</i>
   <i type="int" name="ISIF">     0</i>
   <i name="PSTRESS">      0.00000000</i>
   <i name="EDIFFG">      0.00001000</i>
   <i type="int" name="NFREE">     0</i>
   <i name="POTIM">      0.50000000</i>
   <i name="SMASS">     -3.00000000</i>
   <i name="SCALEE">      1.00000000</i>
  </separator>
  <separator name="ionic md" >
   <i name="TEBEG">      0.00010000</i>
   <i name="TEEND">      0.00010000</i>
   <i type="int" name="NBLOCK">     1</i>
   <i type="int" name="KBLOCK">     1</i>
   <i type="int" name="NPACO">   256</i>
   <i name="APACO">     16.00000000</i>
  </separator>
  <separator name="symmetry" >
   <i type="int" name="ISYM">     3</i>
   <i name="SYMPREC">      0.00001000</i>
  </separator>
  <separator name="dos" >
   <i type="logical" name="LORBIT"> F  </i>
   <v name="RWIGS">     -1.00000000     -1.00000000     -1.00000000     -1.00000000</v>
   <i type="int" name="NEDOS">   301</i>
   <i name="EMIN">     10.00000000</i>
   <i name="EMAX">    -10.00000000</i>
   <i name="EFERMI">      0.00000000</i>
  </separator>
  <separator name="writing" >
   <i type="int" name="NWRITE">     2</i>
   <i type="logical" name="LWAVE"> T  </i>
   <i type="logical" name="LCHARG"> T  </i>
   <i type="logical" name="LPARD"> F  </i>
   <i type="logical" name="LVTOT"> T  </i>
   <i type="logical" name="LVHAR"> F  </i>
   <i type="logical" name="LELF"> F  </i>
   <i type="logical" name="LOPTICS"> F  </i>
   <v name="STM">      0.00000000      0.00000000      0.00000000      0.00000000      0.00000000      0.00000000      0.00000000</v>
  </separator>
  <separator name="performance" >
   <i type="int" name="NPAR">    16</i>
   <i type="int" name="NSIM">     4</i>
   <i type="int" name="NBLK">    -1</i>
   <i type="logical" name="LPLANE"> T  </i>
   <i type="logical" name="LSCALAPACK"> T  </i>
   <i type="logical" name="LSCAAWARE"> F  </i>
   <i type="logical" name="LSCALU"> F  </i>
   <i type="logical" name="LASYNC"> F  </i>
   <i type="logical" name="LORBITALREAL"> F  </i>
  </separator>
  <separator name="miscellaneous" >
   <i type="int" name="IDIOT">     3</i>
   <i type="logical" name="LMUSIC"> F  </i>
   <v name="POMASS">     35.45300000    114.82000000    132.90000000     63.54600000</v>
   <v name="DARWINR">      0.00000000      0.00000000      0.00000000      0.00000000</v>
   <v name="DARWINV">      1.00000000      1.00000000      1.00000000      1.00000000</v>
   <i type="logical" name="LCORR"> T  </i>
  </separator>
  <i type="logical" name="GGA_COMPAT"> T  </i>
  <i type="logical" name="LBERRY"> F  </i>
  <i type="int" name="ICORELEVEL">     0</i>
  <i type="logical" name="LDAU"> F  </i>
  <i type="int" name="I_CONSTRAINED_M">     0</i>
  <separator name="electronic exchange-correlation" >
   <i type="string" name="GGA">--</i>
   <i type="int" name="VOSKOWN">     0</i>
   <i type="logical" name="LHFCALC"> T  </i>
   <i type="string" name="PRECFOCK">normal</i>
   <i type="logical" name="LSYMGRAD"> F  </i>
   <i type="logical" name="LHFONE"> F  </i>
   <i type="logical" name="LRHFCALC"> F  </i>
   <i type="logical" name="LTHOMAS"> F  </i>
   <i type="logical" name="LMODELHF"> F  </i>
   <i name="ENCUT4O">     -1.00000000</i>
   <i type="int" name="EXXOEP">     0</i>
   <i type="int" name="FOURORBIT">     0</i>
   <i name="AEXX">      0.25000000</i>
   <i name="HFALPHA">     -1.00000000</i>
   <i name="MCALPHA">      0.00000000</i>
   <i name="ALDAX">      0.75000000</i>
   <i name="AGGAX">      0.75000000</i>
   <i name="ALDAC">      1.00000000</i>
   <i name="AGGAC">      1.00000000</i>
   <i type="int" name="NKREDX">     1</i>
   <i type="int" name="NKREDY">     1</i>
   <i type="int" name="NKREDZ">     1</i>
   <i type="logical" name="SHIFTRED"> F  </i>
   <i type="logical" name="ODDONLY"> F  </i>
   <i type="logical" name="EVENONLY"> F  </i>
   <i type="int" name="LMAXFOCK">     4</i>
   <i type="int" name="NMAXFOCKAE">     1</i>
   <i type="logical" name="LFOCKAEDFT"> F  </i>
   <i name="HFSCREEN">      0.20000000</i>
   <i name="HFSCREENC">      0.20000000</i>
   <i type="int" name="NBANDSGWLOW">     1</i>
  </separator>
  <separator name="vdW DFT" >
   <i type="logical" name="LUSE_VDW"> F  </i>
   <i name="Zab_VDW">     -0.84910000</i>
   <i name="PARAM1">      0.12340000</i>
   <i name="PARAM2">      1.00000000</i>
   <i name="PARAM3">      0.00000000</i>
  </separator>
  <separator name="model GW" >
   <i type="int" name="MODEL_GW">     0</i>
   <i name="MODEL_EPS0">     30.01026513</i>
   <i name="MODEL_ALPHA">      1.00000000</i>
  </separator>
  <separator name="linear response parameters" >
   <i type="logical" name="LEPSILON"> F  </i>
   <i type="logical" name="LRPA"> F  </i>
   <i type="logical" name="LNABLA"> F  </i>
   <i type="logical" name="LVEL"> F  </i>
   <i type="int" name="KINTER">     0</i>
   <i name="CSHIFT">      0.10000000</i>
   <i name="OMEGAMAX">     -1.00000000</i>
   <i name="DEG_THRESHOLD">      0.00200000</i>
  </separator>
  <separator name="orbital magnetization" >
   <i type="logical" name="NUCIND"> F  </i>
   <v name="MAGPOS">      0.00000000      0.00000000      0.00000000</v>
   <i type="logical" name="LNICSALL"> T  </i>
   <i type="logical" name="ORBITALMAG"> F  </i>
   <i type="logical" name="LMAGBLOCH"> F  </i>
   <i type="logical" name="LCHIMAG"> F  </i>
   <i type="logical" name="LGAUGE"> T  </i>
   <i type="int" name="MAGATOM">     0</i>
   <v name="MAGDIPOL">      0.00000000      0.00000000      0.00000000</v>
   <v name="AVECCONST">      0.00000000      0.00000000      0.00000000</v>
  </separator>
  <separator name="response functions" >
   <i type="logical" name="LADDER"> F  </i>
   <i type="logical" name="LFXC"> F  </i>
   <i type="logical" name="LHARTREE"> T  </i>
   <i type="int" name="IBSE">     0</i>
   <v type="int" name="KPOINT">    -1     0     0     0</v>
   <i type="logical" name="LTCTE"> F  </i>
   <i type="logical" name="LTETE"> F  </i>
   <i type="logical" name="LTRIPLET"> F  </i>
   <i type="logical" name="LFXCEPS"> F  </i>
   <i type="logical" name="LFXHEG"> F  </i>
   <i type="int" name="NATURALO">     0</i>
   <i type="logical" name="L2ORDER"> F  </i>
   <i type="logical" name="LUSEW"> F  </i>
   <i name="ENCUTGW">     -2.00000000</i>
   <i name="ENCUTGWSOFT">     -2.00000000</i>
   <i name="ENCUTLF">     -1.00000000</i>
   <i type="int" name="LMAXMP2">    -1</i>
   <i name="SCISSOR">      0.00000000</i>
   <i type="int" name="NOMEGA">     0</i>
   <i type="int" name="NOMEGAR">     0</i>
   <i type="int" name="NBANDSGW">    -1</i>
   <i type="int" name="NBANDSO">    -1</i>
   <i type="int" name="NBANDSV">    -1</i>
   <i type="int" name="NELM">     1</i>
   <i type="int" name="NELMHF">     1</i>
   <i type="int" name="DIM">     3</i>
   <i type="int" name="ANTIRES">     0</i>
   <i name="OMEGAMAX">    -30.00000000</i>
   <i name="OMEGAMIN">    -30.00000000</i>
   <i name="OMEGATL">   -200.00000000</i>
   <i type="int" name="OMEGAGRID">     0</i>
   <i name="CSHIFT">     -0.10000000</i>
   <i type="logical" name="SELFENERGY"> F  </i>
   <i type="logical" name="LSPECTRAL"> F  </i>
   <i type="logical" name="LSPECTRALGW"> F  </i>
   <i type="logical" name="LSINGLES"> F  </i>
   <i type="logical" name="LFERMIGW"> F  </i>
   <i type="logical" name="ODDONLYGW"> F  </i>
   <i type="logical" name="EVENONLYGW"> F  </i>
   <i type="int" name="NKREDLFX">     1</i>
   <i type="int" name="NKREDLFY">     1</i>
   <i type="int" name="NKREDLFZ">     1</i>
   <i type="int" name="MAXMEM">  1800</i>
   <i type="int" name="TELESCOPE">     0</i>
   <i type="int" name="TAUPAR">     1</i>
   <i type="int" name="OMEGAPAR">    -1</i>
   <i name="LAMBDA">      1.00000000</i>
  </separator>
  <separator name="External order field" >
   <i name="OFIELD_KAPPA">      0.00000000</i>
   <v name="OFIELD_K">      0.00000000      0.00000000      0.00000000</v>
   <i name="OFIELD_Q6_NEAR">      0.00000000</i>
   <i name="OFIELD_Q6_FAR">      0.00000000</i>
   <i name="OFIELD_A">      0.00000000</i>
  </separator>
 </parameters>
 <atominfo>
  <atoms>      46 </atoms>
  <types>       4 </types>
  <array name="atoms" >
   <dimension dim="1">ion</dimension>
   <field type="string">element</field>
   <field type="int">atomtype</field>
   <set>
    <rc><c>Cl</c><c>   1</c></rc>
    <rc><c>Cl</c><c>   1</c></rc>
    <rc><c>Cl</c><c>   1</c></rc>
    <rc><c>Cl</c><c>   1</c></rc>
    <rc><c>Cl</c><c>   1</c></rc>
    <rc><c>Cl</c><c>   1</c></rc>
    <rc><c>Cl</c><c>   1</c></rc>
    <rc><c>Cl</c><c>   1</c></rc>
    <rc><c>Cl</c><c>   1</c></rc>
    <rc><c>Cl</c><c>   1</c></rc>
    <rc><c>Cl</c><c>   1</c></rc>
    <rc><c>Cl</c><c>   1</c></rc>
    <rc><c>Cl</c><c>   1</c></rc>
    <rc><c>Cl</c><c>   1</c></rc>
    <rc><c>Cl</c><c>   1</c></rc>
    <rc><c>Cl</c><c>   1</c></rc>
    <rc><c>Cl</c><c>   1</c></rc>
    <rc><c>Cl</c><c>   1</c></rc>
    <rc><c>Cl</c><c>   1</c></rc>
    <rc><c>Cl</c><c>   1</c></rc>
    <rc><c>Cl</c><c>   1</c></rc>
    <rc><c>Cl</c><c>   1</c></rc>
    <rc><c>Cl</c><c>   1</c></rc>
    <rc><c>Cl</c><c>   1</c></rc>
    <rc><c>Cl</c><c>   1</c></rc>
    <rc><c>Cl</c><c>   1</c></rc>
    <rc><c>Cl</c><c>   1</c></rc>
    <rc><c>Cl</c><c>   1</c></rc>
    <rc><c>In</c><c>   2</c></rc>
    <rc><c>In</c><c>   2</c></rc>
    <rc><c>In</c><c>   2</c></rc>
    <rc><c>In</c><c>   2</c></rc>
    <rc><c>In</c><c>   2</c></rc>
    <rc><c>Cs</c><c>   3</c></rc>
    <rc><c>Cs</c><c>   3</c></rc>
    <rc><c>Cs</c><c>   3</c></rc>
    <rc><c>Cs</c><c>   3</c></rc>
    <rc><c>Cs</c><c>   3</c></rc>
    <rc><c>Cs</c><c>   3</c></rc>
    <rc><c>Cs</c><c>   3</c></rc>
    <rc><c>Cs</c><c>   3</c></rc>
    <rc><c>Cu</c><c>   4</c></rc>
    <rc><c>Cu</c><c>   4</c></rc>
    <rc><c>Cu</c><c>   4</c></rc>
    <rc><c>Cu</c><c>   4</c></rc>
    <rc><c>Cu</c><c>   4</c></rc>
   </set>
  </array>
  <array name="atomtypes" >
   <dimension dim="1">type</dimension>
   <field type="int">atomspertype</field>
   <field type="string">element</field>
   <field>mass</field>
   <field>valence</field>
   <field type="string">pseudopotential</field>
   <set>
    <rc><c>  28</c><c>Cl</c><c>     35.45300000</c><c>      7.00000000</c><c>  PAW_PBE Cl 06Sep2000                  </c></rc>
    <rc><c>   5</c><c>In</c><c>    114.82000000</c><c>     13.00000000</c><c>  PAW_PBE In_d 06Sep2000                </c></rc>
    <rc><c>   8</c><c>Cs</c><c>    132.90000000</c><c>      9.00000000</c><c>  PAW_PBE Cs_sv 08Apr2002               </c></rc>
    <rc><c>   5</c><c>Cu</c><c>     63.54600000</c><c>     17.00000000</c><c>  PAW_PBE Cu_pv 06Sep2000               </c></rc>
   </set>
  </array>
 </atominfo>
 <structure name="initialpos" >
  <crystal>
   <varray name="basis" >
    <v>       7.13590002       0.00000000       0.00000000 </v>
    <v>       0.00000000       7.13590002       0.00000000 </v>
    <v>       0.00000000       0.00000000      45.18339920 </v>
   </varray>
   <i name="volume">   2300.78699304 </i>
   <varray name="rec_basis" >
    <v>       0.14013649       0.00000000       0.00000000 </v>
    <v>       0.00000000       0.14013649       0.00000000 </v>
    <v>       0.00000000       0.00000000       0.02213202 </v>
   </varray>
  </crystal>
  <varray name="positions" >
   <v>       0.00000000       0.00000000       0.55489999 </v>
   <v>       0.00000000       0.00000000       0.44510001 </v>
   <v>       0.00000000       0.00000000       0.66850001 </v>
   <v>       0.00000000       0.00000000       0.33149999 </v>
   <v>       0.50000000       0.50000000       0.66659999 </v>
   <v>       0.50000000       0.50000000       0.33340001 </v>
   <v>       0.50000000       0.50000000       0.55680001 </v>
   <v>       0.50000000       0.50000000       0.44319999 </v>
   <v>       0.74590003       0.74590003       0.61170000 </v>
   <v>       0.25409997       0.25409999       0.38830000 </v>
   <v>       0.25409997       0.25409999       0.61170000 </v>
   <v>       0.74590003       0.74590003       0.38830000 </v>
   <v>       0.25409999       0.74590003       0.61170000 </v>
   <v>       0.74590003       0.25409997       0.38830000 </v>
   <v>       0.74590003       0.25409997       0.61170000 </v>
   <v>       0.25409999       0.74590003       0.38830000 </v>
   <v>       0.24589998       0.24589998       0.72329998 </v>
   <v>       0.75410002       0.75410002       0.27669999 </v>
   <v>       0.75410002       0.75410002       0.72329998 </v>
   <v>       0.24589998       0.24589998       0.27669999 </v>
   <v>       0.75410002       0.24589998       0.72329998 </v>
   <v>       0.24589998       0.75410002       0.27669999 </v>
   <v>       0.24589998       0.75410002       0.72329998 </v>
   <v>       0.75410002       0.24589998       0.27669999 </v>
   <v>       0.24589998       0.24589998       0.50000000 </v>
   <v>       0.75410002       0.75410002       0.50000000 </v>
   <v>       0.75410002       0.24589998       0.50000000 </v>
   <v>       0.24589998       0.75410002       0.50000000 </v>
   <v>       0.00000000       0.00000000       0.61170000 </v>
   <v>       0.00000000       0.00000000       0.38830000 </v>
   <v>       0.50000000       0.50000000       0.72329998 </v>
   <v>       0.50000000       0.50000000       0.27669999 </v>
   <v>       0.50000000       0.50000000       0.50000000 </v>
   <v>       0.00000000       0.50000000       0.55579996 </v>
   <v>       0.00000000       0.50000000       0.44420001 </v>
   <v>       0.50000000       0.00000000       0.55579996 </v>
   <v>       0.50000000       0.00000000       0.44420001 </v>
   <v>       0.50000000       0.00000000       0.66750002 </v>
   <v>       0.50000000       0.00000000       0.33250001 </v>
   <v>       0.00000000       0.50000000       0.66750002 </v>
   <v>       0.00000000       0.50000000       0.33250001 </v>
   <v>       0.00000000       0.00000000       0.72329998 </v>
   <v>       0.00000000       0.00000000       0.27669999 </v>
   <v>       0.50000000       0.50000000       0.61170000 </v>
   <v>       0.50000000       0.50000000       0.38830000 </v>
   <v>       0.00000000       0.00000000       0.50000000 </v>
  </varray>
 </structure>
 <calculation>
  <scstep>
   <time name="total"> 1105.40 1105.93</time>
   <energy>
    <i name="alphaZ">    604.60654105 </i>
    <i name="ewald"> 249172.25771524 </i>
    <i name="hartreedc">-289381.83386330 </i>
    <i name="XCdc">   1065.46017763 </i>
    <i name="pawpsdc">  53152.85004851 </i>
    <i name="pawaedc"> -53700.08464480 </i>
    <i name="eentropy">     -0.01600808 </i>
    <i name="bandstr">  -6395.33852041 </i>
    <i name="atom">  44343.42510124 </i>
    <i name="e_fr_energy">    -88.74319484 </i>
    <i name="e_wo_entrp">    -88.72718676 </i>
    <i name="e_0_energy">    -88.73519080 </i>
   </energy>
  </scstep>
  <scstep>
   <time name="total"> 1074.53 1075.04</time>
   <energy>
    <i name="e_fr_energy">   -129.86677051 </i>
    <i name="e_wo_entrp">   -129.85804109 </i>
    <i name="e_0_energy">   -129.86240580 </i>
   </energy>
  </scstep>
  <scstep>
   <time name="total"> 1093.19 1093.69</time>
   <energy>
    <i name="e_fr_energy">   -144.09686945 </i>
    <i name="e_wo_entrp">   -144.09684726 </i>
    <i name="e_0_energy">   -144.09685836 </i>
   </energy>
  </scstep>
  <scstep>
   <time name="total"> 1074.92 1075.43</time>
   <energy>
    <i name="e_fr_energy">   -130.16182478 </i>
    <i name="e_wo_entrp">   -130.16182478 </i>
    <i name="e_0_energy">   -130.16182478 </i>
   </energy>
  </scstep>
  <scstep>
   <time name="total"> 1074.97 1075.47</time>
   <energy>
    <i name="e_fr_energy">    -95.29292821 </i>
    <i name="e_wo_entrp">    -95.29292821 </i>
    <i name="e_0_energy">    -95.29292821 </i>
   </energy>
  </scstep>
  <scstep>
   <time name="total"> 1076.08 1076.57</time>
   <energy>
    <i name="e_fr_energy">    -39.09782394 </i>
    <i name="e_wo_entrp">    -39.09782394 </i>
    <i name="e_0_energy">    -39.09782394 </i>
   </energy>
  </scstep>
  <scstep>
   <time name="total"> 1076.33 1076.82</time>
   <energy>
    <i name="e_fr_energy">    -32.00698805 </i>
    <i name="e_wo_entrp">    -32.00698805 </i>
    <i name="e_0_energy">    -32.00698805 </i>
   </energy>
  </scstep>
  <scstep>
   <time name="total"> 1075.71 1076.20</time>
   <energy>
    <i name="e_fr_energy">    -43.73697053 </i>
    <i name="e_wo_entrp">    -43.73344469 </i>
    <i name="e_0_energy">    -43.73520761 </i>
   </energy>
  </scstep>
  <scstep>
   <time name="total"> 1074.29 1074.92</time>
   <energy>
    <i name="e_fr_energy">    -74.45745474 </i>
    <i name="e_wo_entrp">    -74.45383155 </i>
    <i name="e_0_energy">    -74.45564315 </i>
   </energy>
  </scstep>
  <scstep>
   <time name="total"> 1076.24 1076.72</time>
   <energy>
    <i name="e_fr_energy">   -135.00083822 </i>
    <i name="e_wo_entrp">   -135.00083822 </i>
    <i name="e_0_energy">   -135.00083822 </i>
   </energy>
  </scstep>
  <scstep>
   <time name="total"> 1077.30 1077.79</time>
   <energy>
    <i name="e_fr_energy">   -168.61393072 </i>
    <i name="e_wo_entrp">   -168.61393072 </i>
    <i name="e_0_energy">   -168.61393072 </i>
   </energy>
  </scstep>
  <scstep>
   <time name="total"> 1077.12 1077.61</time>
   <energy>
    <i name="e_fr_energy">   -172.91992040 </i>
    <i name="e_wo_entrp">   -172.91992040 </i>
    <i name="e_0_energy">   -172.91992040 </i>
   </energy>
  </scstep>
  <scstep>
   <time name="total"> 1077.52 1078.02</time>
   <energy>
    <i name="e_fr_energy">   -174.68193504 </i>
    <i name="e_wo_entrp">   -174.68193504 </i>
    <i name="e_0_energy">   -174.68193504 </i>
   </energy>
  </scstep>
  <scstep>
   <time name="total"> 1074.78 1075.28</time>
   <energy>
    <i name="e_fr_energy">   -176.09144420 </i>
    <i name="e_wo_entrp">   -176.09144420 </i>
    <i name="e_0_energy">   -176.09144420 </i>
   </energy>
  </scstep>
  <scstep>
   <time name="total"> 1076.44 1076.93</time>
   <energy>
    <i name="e_fr_energy">   -176.34416474 </i>
    <i name="e_wo_entrp">   -176.34416474 </i>
    <i name="e_0_energy">   -176.34416474 </i>
   </energy>
  </scstep>
  <scstep>
   <time name="total"> 1076.49 1076.98</time>
   <energy>
    <i name="e_fr_energy">   -176.49372719 </i>
    <i name="e_wo_entrp">   -176.49372719 </i>
    <i name="e_0_energy">   -176.49372719 </i>
   </energy>
  </scstep>
  <scstep>
   <time name="total"> 1076.49 1077.36</time>
   <energy>
    <i name="e_fr_energy">   -176.54954216 </i>
    <i name="e_wo_entrp">   -176.54954216 </i>
    <i name="e_0_energy">   -176.54954216 </i>
   </energy>
  </scstep>
  <scstep>
   <time name="total"> 1077.69 1078.40</time>
   <energy>
    <i name="e_fr_energy">   -176.56980016 </i>
    <i name="e_wo_entrp">   -176.56980016 </i>
    <i name="e_0_energy">   -176.56980016 </i>
   </energy>
  </scstep>
  <scstep>
   <time name="total"> 1076.73 1077.22</time>
   <energy>
    <i name="e_fr_energy">   -176.57902860 </i>
    <i name="e_wo_entrp">   -176.57902860 </i>
    <i name="e_0_energy">   -176.57902860 </i>
   </energy>
  </scstep>
  <scstep>
   <time name="total"> 1076.39 1076.88</time>
   <energy>
    <i name="e_fr_energy">   -176.58295444 </i>
    <i name="e_wo_entrp">   -176.58295444 </i>
    <i name="e_0_energy">   -176.58295444 </i>
   </energy>
  </scstep>
  <scstep>
   <time name="total"> 1076.76 1077.27</time>
   <energy>
    <i name="e_fr_energy">   -176.58462920 </i>
    <i name="e_wo_entrp">   -176.58462920 </i>
    <i name="e_0_energy">   -176.58462920 </i>
   </energy>
  </scstep>
  <scstep>
   <time name="total"> 1075.95 1076.44</time>
   <energy>
    <i name="e_fr_energy">   -176.58545794 </i>
    <i name="e_wo_entrp">   -176.58545794 </i>
    <i name="e_0_energy">   -176.58545794 </i>
   </energy>
  </scstep>
  <scstep>
   <time name="total"> 1075.76 1076.25</time>
   <energy>
    <i name="e_fr_energy">   -176.58581673 </i>
    <i name="e_wo_entrp">   -176.58581673 </i>
    <i name="e_0_energy">   -176.58581673 </i>
   </energy>
  </scstep>
  <scstep>
   <time name="total"> 1073.39 1073.89</time>
   <energy>
    <i name="e_fr_energy">   -176.58604070 </i>
    <i name="e_wo_entrp">   -176.58604070 </i>
    <i name="e_0_energy">   -176.58604070 </i>
   </energy>
  </scstep>
  <scstep>
   <time name="total"> 1076.37 1076.86</time>
   <energy>
    <i name="e_fr_energy">   -176.58615214 </i>
    <i name="e_wo_entrp">   -176.58615214 </i>
    <i name="e_0_energy">   -176.58615214 </i>
   </energy>
  </scstep>
  <scstep>
   <time name="total"> 1077.00 1077.50</time>
   <energy>
    <i name="e_fr_energy">   -176.58622703 </i>
    <i name="e_wo_entrp">   -176.58622703 </i>
    <i name="e_0_energy">   -176.58622703 </i>
   </energy>
  </scstep>
  <scstep>
   <time name="total"> 1077.85 1078.46</time>
   <energy>
    <i name="e_fr_energy">   -176.58627202 </i>
    <i name="e_wo_entrp">   -176.58627202 </i>
    <i name="e_0_energy">   -176.58627202 </i>
   </energy>
  </scstep>
  <scstep>
   <time name="total"> 1076.75 1077.24</time>
   <energy>
    <i name="e_fr_energy">   -176.58630241 </i>
    <i name="e_wo_entrp">   -176.58630241 </i>
    <i name="e_0_energy">   -176.58630241 </i>
   </energy>
  </scstep>
  <scstep>
   <time name="total"> 1077.35 1077.84</time>
   <energy>
    <i name="e_fr_energy">   -176.58632297 </i>
    <i name="e_wo_entrp">   -176.58632297 </i>
    <i name="e_0_energy">   -176.58632297 </i>
   </energy>
  </scstep>
  <scstep>
   <time name="total"> 1076.93 1077.42</time>
   <energy>
    <i name="e_fr_energy">   -176.58633728 </i>
    <i name="e_wo_entrp">   -176.58633728 </i>
    <i name="e_0_energy">   -176.58633728 </i>
   </energy>
  </scstep>
  <scstep>
   <time name="total"> 1078.67 1079.17</time>
   <energy>
    <i name="e_fr_energy">   -176.58634740 </i>
    <i name="e_wo_entrp">   -176.58634740 </i>
    <i name="e_0_energy">   -176.58634740 </i>
   </energy>
  </scstep>
  <scstep>
   <time name="total"> 1075.31 1075.80</time>
   <energy>
    <i name="e_fr_energy">   -176.58635465 </i>
    <i name="e_wo_entrp">   -176.58635465 </i>
    <i name="e_0_energy">   -176.58635465 </i>
   </energy>
  </scstep>
  <scstep>
   <time name="total"> 1076.39 1076.89</time>
   <energy>
    <i name="e_fr_energy">   -176.58635986 </i>
    <i name="e_wo_entrp">   -176.58635986 </i>
    <i name="e_0_energy">   -176.58635986 </i>
   </energy>
  </scstep>
  <scstep>
   <time name="total"> 1076.30 1076.79</time>
   <energy>
    <i name="e_fr_energy">   -176.58636367 </i>
    <i name="e_wo_entrp">   -176.58636367 </i>
    <i name="e_0_energy">   -176.58636367 </i>
   </energy>
  </scstep>
  <scstep>
   <time name="total"> 1076.36 1076.85</time>
   <energy>
    <i name="e_fr_energy">   -176.58636652 </i>
    <i name="e_wo_entrp">   -176.58636652 </i>
    <i name="e_0_energy">   -176.58636652 </i>
   </energy>
  </scstep>
  <scstep>
   <time name="total"> 1074.64 1075.22</time>
   <energy>
    <i name="e_fr_energy">   -176.58636865 </i>
    <i name="e_wo_entrp">   -176.58636865 </i>
    <i name="e_0_energy">   -176.58636865 </i>
   </energy>
  </scstep>
  <scstep>
   <time name="total"> 1076.39 1076.88</time>
   <energy>
    <i name="e_fr_energy">   -176.58637023 </i>
    <i name="e_wo_entrp">   -176.58637023 </i>
    <i name="e_0_energy">   -176.58637023 </i>
   </energy>
  </scstep>
  <scstep>
   <time name="total"> 1076.77 1077.27</time>
   <energy>
    <i name="e_fr_energy">   -176.58637141 </i>
    <i name="e_wo_entrp">   -176.58637141 </i>
    <i name="e_0_energy">   -176.58637141 </i>
   </energy>
  </scstep>
  <scstep>
   <time name="total"> 1075.96 1076.48</time>
   <energy>
    <i name="alphaZ">    604.60654105 </i>
    <i name="ewald"> 249172.25771524 </i>
    <i name="hartreedc">-289853.08092328 </i>
    <i name="XCdc">   1070.12718661 </i>
    <i name="pawpsdc">  50399.73541920 </i>
    <i name="pawaedc"> -50934.14408346 </i>
    <i name="eentropy">     -0.00000000 </i>
    <i name="bandstr">  -6041.00685450 </i>
    <i name="atom">  44343.42510124 </i>
    <i name="e_fr_energy">   -176.58637233 </i>
    <i name="e_wo_entrp">   -176.58637233 </i>
    <i name="e_0_energy">   -176.58637233 </i>
   </energy>
  </scstep>
  <structure>
   <crystal>
    <varray name="basis" >
     <v>       7.13590002       0.00000000       0.00000000 </v>
     <v>       0.00000000       7.13590002       0.00000000 </v>
     <v>       0.00000000       0.00000000      45.18339920 </v>
    </varray>
    <i name="volume">   2300.78699304 </i>
    <varray name="rec_basis" >
     <v>       0.14013649       0.00000000       0.00000000 </v>
     <v>       0.00000000       0.14013649       0.00000000 </v>
     <v>       0.00000000       0.00000000       0.02213202 </v>
    </varray>
   </crystal>
   <varray name="positions" >
    <v>       0.00000000       0.00000000       0.55489999 </v>
    <v>       0.00000000       0.00000000       0.44510001 </v>
    <v>       0.00000000       0.00000000       0.66850001 </v>
    <v>       0.00000000       0.00000000       0.33149999 </v>
    <v>       0.50000000       0.50000000       0.66659999 </v>
    <v>       0.50000000       0.50000000       0.33340001 </v>
    <v>       0.50000000       0.50000000       0.55680001 </v>
    <v>       0.50000000       0.50000000       0.44319999 </v>
    <v>       0.74590003       0.74590003       0.61170000 </v>
    <v>       0.25409997       0.25409999       0.38830000 </v>
    <v>       0.25409997       0.25409999       0.61170000 </v>
    <v>       0.74590003       0.74590003       0.38830000 </v>
    <v>       0.25409999       0.74590003       0.61170000 </v>
    <v>       0.74590003       0.25409997       0.38830000 </v>
    <v>       0.74590003       0.25409997       0.61170000 </v>
    <v>       0.25409999       0.74590003       0.38830000 </v>
    <v>       0.24589998       0.24589998       0.72329998 </v>
    <v>       0.75410002       0.75410002       0.27669999 </v>
    <v>       0.75410002       0.75410002       0.72329998 </v>
    <v>       0.24589998       0.24589998       0.27669999 </v>
    <v>       0.75410002       0.24589998       0.72329998 </v>
    <v>       0.24589998       0.75410002       0.27669999 </v>
    <v>       0.24589998       0.75410002       0.72329998 </v>
    <v>       0.75410002       0.24589998       0.27669999 </v>
    <v>       0.24589998       0.24589998       0.50000000 </v>
    <v>       0.75410002       0.75410002       0.50000000 </v>
    <v>       0.75410002       0.24589998       0.50000000 </v>
    <v>       0.24589998       0.75410002       0.50000000 </v>
    <v>       0.00000000       0.00000000       0.61170000 </v>
    <v>       0.00000000       0.00000000       0.38830000 </v>
    <v>       0.50000000       0.50000000       0.72329998 </v>
    <v>       0.50000000       0.50000000       0.27669999 </v>
    <v>       0.50000000       0.50000000       0.50000000 </v>
    <v>       0.00000000       0.50000000       0.55579996 </v>
    <v>       0.00000000       0.50000000       0.44420001 </v>
    <v>       0.50000000       0.00000000       0.55579996 </v>
    <v>       0.50000000       0.00000000       0.44420001 </v>
    <v>       0.50000000       0.00000000       0.66750002 </v>
    <v>       0.50000000       0.00000000       0.33250001 </v>
    <v>       0.00000000       0.50000000       0.66750002 </v>
    <v>       0.00000000       0.50000000       0.33250001 </v>
    <v>       0.00000000       0.00000000       0.72329998 </v>
    <v>       0.00000000       0.00000000       0.27669999 </v>
    <v>       0.50000000       0.50000000       0.61170000 </v>
    <v>       0.50000000       0.50000000       0.38830000 </v>
    <v>       0.00000000       0.00000000       0.50000000 </v>
   </varray>
  </structure>
  <varray name="forces" >
   <v>      -0.00000000       0.00000000       0.47541016 </v>
   <v>      -0.00000000       0.00000000      -0.47541016 </v>
   <v>      -0.00000000       0.00000000      -0.39798724 </v>
   <v>      -0.00000000       0.00000000       0.39798724 </v>
   <v>      -0.00000000       0.00000000       0.49260985 </v>
   <v>      -0.00000000       0.00000000      -0.49260985 </v>
   <v>      -0.00000000       0.00000000      -0.47521789 </v>
   <v>      -0.00000000       0.00000000       0.47521789 </v>
   <v>       0.34933092       0.34933092      -0.01144487 </v>
   <v>      -0.34933092      -0.34933092       0.01144487 </v>
   <v>      -0.34933092      -0.34933092      -0.01144487 </v>
   <v>       0.34933092       0.34933092       0.01144487 </v>
   <v>      -0.34933092       0.34933092      -0.01144487 </v>
   <v>       0.34933092      -0.34933092       0.01144487 </v>
   <v>       0.34933092      -0.34933092      -0.01144487 </v>
   <v>      -0.34933092       0.34933092       0.01144487 </v>
   <v>       0.42106830       0.42106830       0.38270971 </v>
   <v>      -0.42106830      -0.42106830      -0.38270971 </v>
   <v>      -0.42106830      -0.42106830       0.38270971 </v>
   <v>       0.42106830       0.42106830      -0.38270971 </v>
   <v>      -0.42106830       0.42106830       0.38270971 </v>
   <v>       0.42106830      -0.42106830      -0.38270971 </v>
   <v>       0.42106830      -0.42106830       0.38270971 </v>
   <v>      -0.42106830       0.42106830      -0.38270971 </v>
   <v>       0.33620030       0.33620030      -0.00000000 </v>
   <v>      -0.33620030      -0.33620030      -0.00000000 </v>
   <v>      -0.33620030       0.33620030      -0.00000000 </v>
   <v>       0.33620030      -0.33620030      -0.00000000 </v>
   <v>      -0.00000000       0.00000000      -0.04719301 </v>
   <v>      -0.00000000      -0.00000000       0.04719301 </v>
   <v>      -0.00000000       0.00000000      -1.01940507 </v>
   <v>      -0.00000000       0.00000000       1.01940507 </v>
   <v>      -0.00000000       0.00000000      -0.00000000 </v>
   <v>      -0.00000000       0.00000000       0.00949078 </v>
   <v>      -0.00000000       0.00000000      -0.00949078 </v>
   <v>      -0.00000000       0.00000000       0.00949078 </v>
   <v>      -0.00000000       0.00000000      -0.00949078 </v>
   <v>      -0.00000000       0.00000000       0.06839929 </v>
   <v>      -0.00000000       0.00000000      -0.06839929 </v>
   <v>      -0.00000000       0.00000000       0.06839929 </v>
   <v>      -0.00000000       0.00000000      -0.06839929 </v>
   <v>      -0.00000000       0.00000000      -0.17248870 </v>
   <v>      -0.00000000       0.00000000       0.17248870 </v>
   <v>      -0.00000000      -0.00000000       0.01979102 </v>
   <v>      -0.00000000      -0.00000000      -0.01979102 </v>
   <v>      -0.00000000       0.00000000      -0.00000000 </v>
  </varray>
  <energy>
   <i name="e_fr_energy">   -176.58637233 </i>
   <i name="e_wo_entrp">   -176.58637233 </i>
   <i name="e_0_energy">     -0.00000000 </i>
  </energy>
  <time name="totalsc">43328.5643378.26</time>
  <eigenvalues>
   <array>
    <dimension dim="1">band</dimension>
    <dimension dim="2">kpoint</dimension>
    <dimension dim="3">spin</dimension>
    <field>eigene</field>
    <field>occ</field>
    <set>
     <set comment="spin 1">
      <set comment="kpoint 1">
       <r>  -73.6501    1.0000 </r>
       <r>  -73.6501    1.0000 </r>
       <r>  -73.6500    1.0000 </r>
       <r>  -73.6500    1.0000 </r>
       <r>  -73.6468    1.0000 </r>
       <r>  -73.6468    1.0000 </r>
       <r>  -73.3815    1.0000 </r>
       <r>  -73.3815    1.0000 </r>
       <r>  -73.3815    1.0000 </r>
       <r>  -73.3812    1.0000 </r>
       <r>  -73.3812    1.0000 </r>
       <r>  -73.3811    1.0000 </r>
       <r>  -73.3811    1.0000 </r>
       <r>  -73.3810    1.0000 </r>
       <r>  -73.3810    1.0000 </r>
       <r>  -23.6388    1.0000 </r>
       <r>  -23.6284    1.0000 </r>
       <r>  -23.6061    1.0000 </r>
       <r>  -23.6012    1.0000 </r>
       <r>  -23.5493    1.0000 </r>
       <r>  -23.5493    1.0000 </r>
       <r>  -23.5195    1.0000 </r>
       <r>  -23.5195    1.0000 </r>
       <r>  -19.0754    1.0000 </r>
       <r>  -19.0676    1.0000 </r>
       <r>  -19.0299    1.0000 </r>
       <r>  -19.0299    1.0000 </r>
       <r>  -19.0175    1.0000 </r>
       <r>  -18.9645    1.0000 </r>
       <r>  -18.9203    1.0000 </r>
       <r>  -18.9050    1.0000 </r>
       <r>  -18.9035    1.0000 </r>
       <r>  -18.9025    1.0000 </r>
       <r>  -18.7461    1.0000 </r>
       <r>  -18.6793    1.0000 </r>
       <r>  -18.5762    1.0000 </r>
       <r>  -18.4394    1.0000 </r>
       <r>  -18.4394    1.0000 </r>
       <r>  -18.4394    1.0000 </r>
       <r>  -18.4394    1.0000 </r>
       <r>  -18.4186    1.0000 </r>
       <r>  -18.4017    1.0000 </r>
       <r>  -18.3386    1.0000 </r>
       <r>  -18.3386    1.0000 </r>
       <r>  -18.1509    1.0000 </r>
       <r>  -18.1509    1.0000 </r>
       <r>  -18.1367    1.0000 </r>
       <r>  -18.1367    1.0000 </r>
       <r>  -18.1343    1.0000 </r>
       <r>  -18.1318    1.0000 </r>
       <r>  -18.1318    1.0000 </r>
       <r>  -18.1276    1.0000 </r>
       <r>  -18.1211    1.0000 </r>
       <r>  -18.0891    1.0000 </r>
       <r>  -18.0891    1.0000 </r>
       <r>  -18.0890    1.0000 </r>
       <r>  -18.0890    1.0000 </r>
       <r>  -18.0866    1.0000 </r>
       <r>  -18.0865    1.0000 </r>
       <r>  -18.0814    1.0000 </r>
       <r>  -18.0813    1.0000 </r>
       <r>  -18.0813    1.0000 </r>
       <r>  -18.0027    1.0000 </r>
       <r>  -18.0027    1.0000 </r>
       <r>  -18.0027    1.0000 </r>
       <r>  -18.0027    1.0000 </r>
       <r>  -17.5770    1.0000 </r>
       <r>  -17.5716    1.0000 </r>
       <r>  -17.3326    1.0000 </r>
       <r>  -17.2240    1.0000 </r>
       <r>  -17.1377    1.0000 </r>
       <r>  -17.1042    1.0000 </r>
       <r>  -17.1041    1.0000 </r>
       <r>  -17.1023    1.0000 </r>
       <r>  -17.0973    1.0000 </r>
       <r>  -17.0965    1.0000 </r>
       <r>   -9.8489    1.0000 </r>
       <r>   -9.8489    1.0000 </r>
       <r>   -9.8275    1.0000 </r>
       <r>   -9.7603    1.0000 </r>
       <r>   -9.7603    1.0000 </r>
       <r>   -9.6815    1.0000 </r>
       <r>   -9.6694    1.0000 </r>
       <r>   -9.6694    1.0000 </r>
       <r>   -9.6415    1.0000 </r>
       <r>   -9.6415    1.0000 </r>
       <r>   -9.6322    1.0000 </r>
       <r>   -9.6322    1.0000 </r>
       <r>   -9.6289    1.0000 </r>
       <r>   -9.5807    1.0000 </r>
       <r>   -9.5807    1.0000 </r>
       <r>   -9.5414    1.0000 </r>
       <r>   -9.5237    1.0000 </r>
       <r>   -9.5123    1.0000 </r>
       <r>   -9.5123    1.0000 </r>
       <r>   -9.5024    1.0000 </r>
       <r>   -9.4984    1.0000 </r>
       <r>   -9.4984    1.0000 </r>
       <r>   -9.4439    1.0000 </r>
       <r>   -9.4370    1.0000 </r>
       <r>   -9.4209    1.0000 </r>
       <r>   -9.3234    1.0000 </r>
       <r>   -9.0694    1.0000 </r>
       <r>   -8.8288    1.0000 </r>
       <r>   -8.7340    1.0000 </r>
       <r>   -6.9605    1.0000 </r>
       <r>   -6.9287    1.0000 </r>
       <r>   -6.8458    1.0000 </r>
       <r>   -6.8114    1.0000 </r>
       <r>   -6.8114    1.0000 </r>
       <r>   -6.8019    1.0000 </r>
       <r>   -6.8019    1.0000 </r>
       <r>   -6.7996    1.0000 </r>
       <r>   -6.7996    1.0000 </r>
       <r>   -6.6677    1.0000 </r>
       <r>   -6.6677    1.0000 </r>
       <r>   -6.6677    1.0000 </r>
       <r>   -6.6677    1.0000 </r>
       <r>   -6.6571    1.0000 </r>
       <r>   -6.1918    1.0000 </r>
       <r>   -6.1796    1.0000 </r>
       <r>   -6.0087    1.0000 </r>
       <r>   -5.8428    1.0000 </r>
       <r>   -5.8105    1.0000 </r>
       <r>   -5.6369    1.0000 </r>
       <r>   -5.6207    1.0000 </r>
       <r>   -5.5452    1.0000 </r>
       <r>   -5.5166    1.0000 </r>
       <r>   -5.5164    1.0000 </r>
       <r>   -5.5163    1.0000 </r>
       <r>   -5.5092    1.0000 </r>
       <r>   -5.5092    1.0000 </r>
       <r>   -5.4950    1.0000 </r>
       <r>   -5.4881    1.0000 </r>
       <r>   -5.4871    1.0000 </r>
       <r>   -5.4670    1.0000 </r>
       <r>   -5.4670    1.0000 </r>
       <r>   -5.4042    1.0000 </r>
       <r>   -5.4042    1.0000 </r>
       <r>   -5.3856    1.0000 </r>
       <r>   -5.2330    1.0000 </r>
       <r>   -5.2330    1.0000 </r>
       <r>   -5.2303    1.0000 </r>
       <r>   -5.2160    1.0000 </r>
       <r>   -5.2160    1.0000 </r>
       <r>   -4.9575    1.0000 </r>
       <r>   -4.9228    1.0000 </r>
       <r>   -4.8392    1.0000 </r>
       <r>   -4.8314    1.0000 </r>
       <r>   -4.8314    1.0000 </r>
       <r>   -4.8128    1.0000 </r>
       <r>   -4.8128    1.0000 </r>
       <r>   -4.7509    1.0000 </r>
       <r>   -4.7455    1.0000 </r>
       <r>   -4.7455    1.0000 </r>
       <r>   -4.7160    1.0000 </r>
       <r>   -4.7160    1.0000 </r>
       <r>   -4.6312    1.0000 </r>
       <r>   -4.6312    1.0000 </r>
       <r>   -4.6053    1.0000 </r>
       <r>   -4.5482    1.0000 </r>
       <r>   -4.5462    1.0000 </r>
       <r>   -4.5019    1.0000 </r>
       <r>   -4.5019    1.0000 </r>
       <r>   -4.4143    1.0000 </r>
       <r>   -4.4143    1.0000 </r>
       <r>   -4.3550    1.0000 </r>
       <r>   -4.3550    1.0000 </r>
       <r>   -4.3017    1.0000 </r>
       <r>   -4.2828    1.0000 </r>
       <r>   -4.2828    1.0000 </r>
       <r>   -4.1983    1.0000 </r>
       <r>   -4.1983    1.0000 </r>
       <r>   -4.1739    1.0000 </r>
       <r>   -4.1739    1.0000 </r>
       <r>   -4.1314    1.0000 </r>
       <r>   -4.1314    1.0000 </r>
       <r>   -3.9736    1.0000 </r>
       <r>   -3.9736    1.0000 </r>
       <r>   -3.9407    1.0000 </r>
       <r>   -3.9247    1.0000 </r>
       <r>   -3.9202    1.0000 </r>
       <r>   -3.6879    1.0000 </r>
       <r>   -3.6879    1.0000 </r>
       <r>   -3.4556    1.0000 </r>
       <r>   -3.4556    1.0000 </r>
       <r>   -3.3927    1.0000 </r>
       <r>   -3.3927    1.0000 </r>
       <r>   -3.3913    1.0000 </r>
       <r>   -3.3913    1.0000 </r>
       <r>   -3.3862    1.0000 </r>
       <r>   -3.3651    1.0000 </r>
       <r>   -3.2565    1.0000 </r>
       <r>   -3.2401    1.0000 </r>
       <r>   -3.2239    1.0000 </r>
       <r>   -3.1833    1.0000 </r>
       <r>   -3.1833    1.0000 </r>
       <r>   -3.1248    1.0000 </r>
       <r>   -3.1248    1.0000 </r>
       <r>   -3.0813    1.0000 </r>
       <r>   -3.0813    1.0000 </r>
       <r>   -2.9979    1.0000 </r>
       <r>   -2.5739    1.0000 </r>
       <r>   -2.1667    1.0000 </r>
       <r>   -2.0769    1.0000 </r>
       <r>   -2.0769    1.0000 </r>
       <r>   -2.0058    1.0000 </r>
       <r>   -2.0014    1.0000 </r>
       <r>   -2.0011    1.0000 </r>
       <r>   -1.1777    0.0000 </r>
       <r>   -1.0742    0.0000 </r>
       <r>   -0.3378    0.0000 </r>
       <r>    0.5063    0.0000 </r>
       <r>    1.3413    0.0000 </r>
       <r>    2.8938    0.0000 </r>
       <r>    2.9154    0.0000 </r>
       <r>    3.6241    0.0000 </r>
       <r>    3.6254    0.0000 </r>
       <r>    3.6590    0.0000 </r>
       <r>    3.6590    0.0000 </r>
       <r>    3.8014    0.0000 </r>
       <r>    3.9096    0.0000 </r>
       <r>    3.9096    0.0000 </r>
       <r>    3.9959    0.0000 </r>
       <r>    3.9984    0.0000 </r>
       <r>    4.1037    0.0000 </r>
       <r>    4.2307    0.0000 </r>
       <r>    4.2426    0.0000 </r>
       <r>    4.2426    0.0000 </r>
       <r>    4.2687    0.0000 </r>
       <r>    4.3369    0.0000 </r>
       <r>    4.3530    0.0000 </r>
       <r>    4.4460    0.0000 </r>
       <r>    4.5701    0.0000 </r>
       <r>    4.5701    0.0000 </r>
       <r>    4.7156    0.0000 </r>
       <r>    4.7709    0.0000 </r>
       <r>    4.7805    0.0000 </r>
       <r>    4.7805    0.0000 </r>
       <r>    4.8166    0.0000 </r>
       <r>    4.8216    0.0000 </r>
       <r>    5.0879    0.0000 </r>
       <r>    5.1627    0.0000 </r>
       <r>    5.1747    0.0000 </r>
       <r>    5.2305    0.0000 </r>
       <r>    5.2396    0.0000 </r>
       <r>    5.2396    0.0000 </r>
       <r>    5.2474    0.0000 </r>
       <r>    5.3236    0.0000 </r>
       <r>    5.5436    0.0000 </r>
       <r>    5.6091    0.0000 </r>
       <r>    5.6099    0.0000 </r>
       <r>    5.6494    0.0000 </r>
       <r>    5.7534    0.0000 </r>
       <r>    5.7647    0.0000 </r>
       <r>    5.7693    0.0000 </r>
      </set>
      <set comment="kpoint 2">
       <r>  -73.6502    1.0000 </r>
       <r>  -73.6501    1.0000 </r>
       <r>  -73.6501    1.0000 </r>
       <r>  -73.6501    1.0000 </r>
       <r>  -73.6468    1.0000 </r>
       <r>  -73.6468    1.0000 </r>
       <r>  -73.3816    1.0000 </r>
       <r>  -73.3815    1.0000 </r>
       <r>  -73.3815    1.0000 </r>
       <r>  -73.3813    1.0000 </r>
       <r>  -73.3812    1.0000 </r>
       <r>  -73.3812    1.0000 </r>
       <r>  -73.3812    1.0000 </r>
       <r>  -73.3810    1.0000 </r>
       <r>  -73.3810    1.0000 </r>
       <r>  -23.6333    1.0000 </r>
       <r>  -23.6238    1.0000 </r>
       <r>  -23.6102    1.0000 </r>
       <r>  -23.6045    1.0000 </r>
       <r>  -23.5443    1.0000 </r>
       <r>  -23.5443    1.0000 </r>
       <r>  -23.5232    1.0000 </r>
       <r>  -23.5232    1.0000 </r>
       <r>  -19.0516    1.0000 </r>
       <r>  -19.0469    1.0000 </r>
       <r>  -19.0436    1.0000 </r>
       <r>  -19.0436    1.0000 </r>
       <r>  -18.9973    1.0000 </r>
       <r>  -18.9558    1.0000 </r>
       <r>  -18.9254    1.0000 </r>
       <r>  -18.9248    1.0000 </r>
       <r>  -18.9242    1.0000 </r>
       <r>  -18.9238    1.0000 </r>
       <r>  -18.7020    1.0000 </r>
       <r>  -18.6436    1.0000 </r>
       <r>  -18.5518    1.0000 </r>
       <r>  -18.4394    1.0000 </r>
       <r>  -18.4394    1.0000 </r>
       <r>  -18.4393    1.0000 </r>
       <r>  -18.4393    1.0000 </r>
       <r>  -18.4082    1.0000 </r>
       <r>  -18.4063    1.0000 </r>
       <r>  -18.3386    1.0000 </r>
       <r>  -18.3386    1.0000 </r>
       <r>  -18.2779    1.0000 </r>
       <r>  -18.2746    1.0000 </r>
       <r>  -18.2153    1.0000 </r>
       <r>  -18.1803    1.0000 </r>
       <r>  -18.1249    1.0000 </r>
       <r>  -18.0906    1.0000 </r>
       <r>  -18.0890    1.0000 </r>
       <r>  -18.0889    1.0000 </r>
       <r>  -18.0888    1.0000 </r>
       <r>  -18.0875    1.0000 </r>
       <r>  -18.0866    1.0000 </r>
       <r>  -18.0865    1.0000 </r>
       <r>  -18.0821    1.0000 </r>
       <r>  -18.0814    1.0000 </r>
       <r>  -18.0813    1.0000 </r>
       <r>  -18.0760    1.0000 </r>
       <r>  -18.0736    1.0000 </r>
       <r>  -18.0700    1.0000 </r>
       <r>  -18.0385    1.0000 </r>
       <r>  -18.0230    1.0000 </r>
       <r>  -17.9478    1.0000 </r>
       <r>  -17.9478    1.0000 </r>
       <r>  -17.5227    1.0000 </r>
       <r>  -17.5224    1.0000 </r>
       <r>  -17.2847    1.0000 </r>
       <r>  -17.2147    1.0000 </r>
       <r>  -17.1528    1.0000 </r>
       <r>  -17.1528    1.0000 </r>
       <r>  -17.1501    1.0000 </r>
       <r>  -17.1496    1.0000 </r>
       <r>  -17.1449    1.0000 </r>
       <r>  -17.1441    1.0000 </r>
       <r>   -9.8028    1.0000 </r>
       <r>   -9.7810    1.0000 </r>
       <r>   -9.7478    1.0000 </r>
       <r>   -9.7263    1.0000 </r>
       <r>   -9.6603    1.0000 </r>
       <r>   -9.6516    1.0000 </r>
       <r>   -9.6472    1.0000 </r>
       <r>   -9.6353    1.0000 </r>
       <r>   -9.6212    1.0000 </r>
       <r>   -9.6189    1.0000 </r>
       <r>   -9.6008    1.0000 </r>
       <r>   -9.5992    1.0000 </r>
       <r>   -9.5599    1.0000 </r>
       <r>   -9.5563    1.0000 </r>
       <r>   -9.5392    1.0000 </r>
       <r>   -9.5373    1.0000 </r>
       <r>   -9.5367    1.0000 </r>
       <r>   -9.5326    1.0000 </r>
       <r>   -9.4874    1.0000 </r>
       <r>   -9.4553    1.0000 </r>
       <r>   -9.4534    1.0000 </r>
       <r>   -9.4460    1.0000 </r>
       <r>   -9.4367    1.0000 </r>
       <r>   -9.4340    1.0000 </r>
       <r>   -9.2932    1.0000 </r>
       <r>   -9.1276    1.0000 </r>
       <r>   -8.8987    1.0000 </r>
       <r>   -8.6926    1.0000 </r>
       <r>   -8.6439    1.0000 </r>
       <r>   -7.4257    1.0000 </r>
       <r>   -7.4214    1.0000 </r>
       <r>   -7.3071    1.0000 </r>
       <r>   -7.1369    1.0000 </r>
       <r>   -7.0291    1.0000 </r>
       <r>   -6.7020    1.0000 </r>
       <r>   -6.6991    1.0000 </r>
       <r>   -6.6865    1.0000 </r>
       <r>   -6.6838    1.0000 </r>
       <r>   -6.6168    1.0000 </r>
       <r>   -6.5848    1.0000 </r>
       <r>   -6.5848    1.0000 </r>
       <r>   -6.5753    1.0000 </r>
       <r>   -6.2298    1.0000 </r>
       <r>   -6.1817    1.0000 </r>
       <r>   -6.0351    1.0000 </r>
       <r>   -5.9133    1.0000 </r>
       <r>   -5.8243    1.0000 </r>
       <r>   -5.7777    1.0000 </r>
       <r>   -5.6984    1.0000 </r>
       <r>   -5.6619    1.0000 </r>
       <r>   -5.6097    1.0000 </r>
       <r>   -5.5511    1.0000 </r>
       <r>   -5.5378    1.0000 </r>
       <r>   -5.5375    1.0000 </r>
       <r>   -5.5335    1.0000 </r>
       <r>   -5.5310    1.0000 </r>
       <r>   -5.5229    1.0000 </r>
       <r>   -5.5135    1.0000 </r>
       <r>   -5.5006    1.0000 </r>
       <r>   -5.4894    1.0000 </r>
       <r>   -5.4702    1.0000 </r>
       <r>   -5.4361    1.0000 </r>
       <r>   -5.4310    1.0000 </r>
       <r>   -5.4030    1.0000 </r>
       <r>   -5.3854    1.0000 </r>
       <r>   -5.2143    1.0000 </r>
       <r>   -5.2054    1.0000 </r>
       <r>   -5.1738    1.0000 </r>
       <r>   -5.1601    1.0000 </r>
       <r>   -5.0326    1.0000 </r>
       <r>   -5.0094    1.0000 </r>
       <r>   -5.0015    1.0000 </r>
       <r>   -4.9371    1.0000 </r>
       <r>   -4.9158    1.0000 </r>
       <r>   -4.9027    1.0000 </r>
       <r>   -4.9002    1.0000 </r>
       <r>   -4.8651    1.0000 </r>
       <r>   -4.7704    1.0000 </r>
       <r>   -4.7207    1.0000 </r>
       <r>   -4.6945    1.0000 </r>
       <r>   -4.6860    1.0000 </r>
       <r>   -4.6800    1.0000 </r>
       <r>   -4.6282    1.0000 </r>
       <r>   -4.6070    1.0000 </r>
       <r>   -4.5959    1.0000 </r>
       <r>   -4.5637    1.0000 </r>
       <r>   -4.5534    1.0000 </r>
       <r>   -4.4848    1.0000 </r>
       <r>   -4.4762    1.0000 </r>
       <r>   -4.4679    1.0000 </r>
       <r>   -4.4244    1.0000 </r>
       <r>   -4.3965    1.0000 </r>
       <r>   -4.3797    1.0000 </r>
       <r>   -4.3187    1.0000 </r>
       <r>   -4.2986    1.0000 </r>
       <r>   -4.2442    1.0000 </r>
       <r>   -4.2391    1.0000 </r>
       <r>   -4.2135    1.0000 </r>
       <r>   -4.1662    1.0000 </r>
       <r>   -4.1442    1.0000 </r>
       <r>   -4.1332    1.0000 </r>
       <r>   -4.1069    1.0000 </r>
       <r>   -4.0873    1.0000 </r>
       <r>   -4.0832    1.0000 </r>
       <r>   -4.0819    1.0000 </r>
       <r>   -4.0310    1.0000 </r>
       <r>   -3.8550    1.0000 </r>
       <r>   -3.8537    1.0000 </r>
       <r>   -3.4209    1.0000 </r>
       <r>   -3.4193    1.0000 </r>
       <r>   -3.4062    1.0000 </r>
       <r>   -3.4056    1.0000 </r>
       <r>   -3.3862    1.0000 </r>
       <r>   -3.3860    1.0000 </r>
       <r>   -3.2239    1.0000 </r>
       <r>   -3.2167    1.0000 </r>
       <r>   -3.1894    1.0000 </r>
       <r>   -3.1867    1.0000 </r>
       <r>   -3.1738    1.0000 </r>
       <r>   -3.1722    1.0000 </r>
       <r>   -3.1449    1.0000 </r>
       <r>   -3.1353    1.0000 </r>
       <r>   -3.1297    1.0000 </r>
       <r>   -3.1063    1.0000 </r>
       <r>   -3.0992    1.0000 </r>
       <r>   -2.8063    1.0000 </r>
       <r>   -2.5035    1.0000 </r>
       <r>   -2.3390    1.0000 </r>
       <r>   -2.3389    1.0000 </r>
       <r>   -2.2515    1.0000 </r>
       <r>   -2.2390    1.0000 </r>
       <r>   -2.2336    1.0000 </r>
       <r>   -2.2284    1.0000 </r>
       <r>   -0.6730    0.0000 </r>
       <r>   -0.6476    0.0000 </r>
       <r>   -0.0030    0.0000 </r>
       <r>    0.6530    0.0000 </r>
       <r>    1.3322    0.0000 </r>
       <r>    2.8027    0.0000 </r>
       <r>    2.8064    0.0000 </r>
       <r>    3.2808    0.0000 </r>
       <r>    3.2974    0.0000 </r>
       <r>    3.5150    0.0000 </r>
       <r>    3.5675    0.0000 </r>
       <r>    3.8287    0.0000 </r>
       <r>    3.9322    0.0000 </r>
       <r>    4.0530    0.0000 </r>
       <r>    4.2659    0.0000 </r>
       <r>    4.3164    0.0000 </r>
       <r>    4.3326    0.0000 </r>
       <r>    4.3345    0.0000 </r>
       <r>    4.4755    0.0000 </r>
       <r>    4.4893    0.0000 </r>
       <r>    4.5844    0.0000 </r>
       <r>    4.6158    0.0000 </r>
       <r>    4.6353    0.0000 </r>
       <r>    4.7012    0.0000 </r>
       <r>    4.7973    0.0000 </r>
       <r>    4.9630    0.0000 </r>
       <r>    4.9816    0.0000 </r>
       <r>    5.0130    0.0000 </r>
       <r>    5.0742    0.0000 </r>
       <r>    5.1280    0.0000 </r>
       <r>    5.2735    0.0000 </r>
       <r>    5.3024    0.0000 </r>
       <r>    5.3647    0.0000 </r>
       <r>    5.4107    0.0000 </r>
       <r>    5.4250    0.0000 </r>
       <r>    5.4809    0.0000 </r>
       <r>    5.5065    0.0000 </r>
       <r>    5.5388    0.0000 </r>
       <r>    5.5619    0.0000 </r>
       <r>    5.6022    0.0000 </r>
       <r>    5.6752    0.0000 </r>
       <r>    5.7643    0.0000 </r>
       <r>    5.7948    0.0000 </r>
       <r>    5.8390    0.0000 </r>
       <r>    5.9275    0.0000 </r>
       <r>    5.9325    0.0000 </r>
       <r>    6.0276    0.0000 </r>
      </set>
      <set comment="kpoint 3">
       <r>  -73.6502    1.0000 </r>
       <r>  -73.6501    1.0000 </r>
       <r>  -73.6501    1.0000 </r>
       <r>  -73.6500    1.0000 </r>
       <r>  -73.6468    1.0000 </r>
       <r>  -73.6468    1.0000 </r>
       <r>  -73.3816    1.0000 </r>
       <r>  -73.3815    1.0000 </r>
       <r>  -73.3815    1.0000 </r>
       <r>  -73.3813    1.0000 </r>
       <r>  -73.3812    1.0000 </r>
       <r>  -73.3812    1.0000 </r>
       <r>  -73.3811    1.0000 </r>
       <r>  -73.3811    1.0000 </r>
       <r>  -73.3810    1.0000 </r>
       <r>  -23.6210    1.0000 </r>
       <r>  -23.6210    1.0000 </r>
       <r>  -23.6135    1.0000 </r>
       <r>  -23.6135    1.0000 </r>
       <r>  -23.5331    1.0000 </r>
       <r>  -23.5331    1.0000 </r>
       <r>  -23.5331    1.0000 </r>
       <r>  -23.5331    1.0000 </r>
       <r>  -19.0566    1.0000 </r>
       <r>  -19.0566    1.0000 </r>
       <r>  -19.0232    1.0000 </r>
       <r>  -19.0225    1.0000 </r>
       <r>  -18.9633    1.0000 </r>
       <r>  -18.9521    1.0000 </r>
       <r>  -18.9506    1.0000 </r>
       <r>  -18.9442    1.0000 </r>
       <r>  -18.9431    1.0000 </r>
       <r>  -18.9431    1.0000 </r>
       <r>  -18.5703    1.0000 </r>
       <r>  -18.5688    1.0000 </r>
       <r>  -18.5466    1.0000 </r>
       <r>  -18.4783    1.0000 </r>
       <r>  -18.4394    1.0000 </r>
       <r>  -18.4394    1.0000 </r>
       <r>  -18.4393    1.0000 </r>
       <r>  -18.4392    1.0000 </r>
       <r>  -18.4281    1.0000 </r>
       <r>  -18.4137    1.0000 </r>
       <r>  -18.3387    1.0000 </r>
       <r>  -18.3386    1.0000 </r>
       <r>  -18.3073    1.0000 </r>
       <r>  -18.2693    1.0000 </r>
       <r>  -18.2403    1.0000 </r>
       <r>  -18.2067    1.0000 </r>
       <r>  -18.0890    1.0000 </r>
       <r>  -18.0890    1.0000 </r>
       <r>  -18.0888    1.0000 </r>
       <r>  -18.0887    1.0000 </r>
       <r>  -18.0866    1.0000 </r>
       <r>  -18.0865    1.0000 </r>
       <r>  -18.0814    1.0000 </r>
       <r>  -18.0814    1.0000 </r>
       <r>  -18.0812    1.0000 </r>
       <r>  -18.0604    1.0000 </r>
       <r>  -18.0599    1.0000 </r>
       <r>  -18.0226    1.0000 </r>
       <r>  -18.0222    1.0000 </r>
       <r>  -18.0131    1.0000 </r>
       <r>  -18.0131    1.0000 </r>
       <r>  -17.8868    1.0000 </r>
       <r>  -17.8868    1.0000 </r>
       <r>  -17.4833    1.0000 </r>
       <r>  -17.4830    1.0000 </r>
       <r>  -17.2081    1.0000 </r>
       <r>  -17.2081    1.0000 </r>
       <r>  -17.2059    1.0000 </r>
       <r>  -17.2020    1.0000 </r>
       <r>  -17.2014    1.0000 </r>
       <r>  -17.1984    1.0000 </r>
       <r>  -17.1979    1.0000 </r>
       <r>  -17.1978    1.0000 </r>
       <r>   -9.6943    1.0000 </r>
       <r>   -9.6896    1.0000 </r>
       <r>   -9.6663    1.0000 </r>
       <r>   -9.6625    1.0000 </r>
       <r>   -9.6569    1.0000 </r>
       <r>   -9.6494    1.0000 </r>
       <r>   -9.6413    1.0000 </r>
       <r>   -9.6259    1.0000 </r>
       <r>   -9.6001    1.0000 </r>
       <r>   -9.5980    1.0000 </r>
       <r>   -9.5909    1.0000 </r>
       <r>   -9.5886    1.0000 </r>
       <r>   -9.5573    1.0000 </r>
       <r>   -9.5548    1.0000 </r>
       <r>   -9.5333    1.0000 </r>
       <r>   -9.5234    1.0000 </r>
       <r>   -9.4611    1.0000 </r>
       <r>   -9.4587    1.0000 </r>
       <r>   -9.4416    1.0000 </r>
       <r>   -9.4349    1.0000 </r>
       <r>   -9.4193    1.0000 </r>
       <r>   -9.4179    1.0000 </r>
       <r>   -9.4132    1.0000 </r>
       <r>   -9.4095    1.0000 </r>
       <r>   -8.8491    1.0000 </r>
       <r>   -8.8329    1.0000 </r>
       <r>   -8.7994    1.0000 </r>
       <r>   -8.6081    1.0000 </r>
       <r>   -8.5922    1.0000 </r>
       <r>   -7.7544    1.0000 </r>
       <r>   -7.7183    1.0000 </r>
       <r>   -7.5482    1.0000 </r>
       <r>   -7.5101    1.0000 </r>
       <r>   -7.4298    1.0000 </r>
       <r>   -6.6717    1.0000 </r>
       <r>   -6.6382    1.0000 </r>
       <r>   -6.5933    1.0000 </r>
       <r>   -6.5645    1.0000 </r>
       <r>   -6.5582    1.0000 </r>
       <r>   -6.5578    1.0000 </r>
       <r>   -6.5042    1.0000 </r>
       <r>   -6.5042    1.0000 </r>
       <r>   -6.1389    1.0000 </r>
       <r>   -6.1380    1.0000 </r>
       <r>   -5.8489    1.0000 </r>
       <r>   -5.8442    1.0000 </r>
       <r>   -5.7975    1.0000 </r>
       <r>   -5.6899    1.0000 </r>
       <r>   -5.6656    1.0000 </r>
       <r>   -5.6604    1.0000 </r>
       <r>   -5.6164    1.0000 </r>
       <r>   -5.6043    1.0000 </r>
       <r>   -5.6043    1.0000 </r>
       <r>   -5.5719    1.0000 </r>
       <r>   -5.5595    1.0000 </r>
       <r>   -5.5520    1.0000 </r>
       <r>   -5.5478    1.0000 </r>
       <r>   -5.5254    1.0000 </r>
       <r>   -5.4790    1.0000 </r>
       <r>   -5.4636    1.0000 </r>
       <r>   -5.4629    1.0000 </r>
       <r>   -5.4522    1.0000 </r>
       <r>   -5.4461    1.0000 </r>
       <r>   -5.4262    1.0000 </r>
       <r>   -5.4130    1.0000 </r>
       <r>   -5.4024    1.0000 </r>
       <r>   -5.2719    1.0000 </r>
       <r>   -5.2539    1.0000 </r>
       <r>   -5.1628    1.0000 </r>
       <r>   -5.1563    1.0000 </r>
       <r>   -5.1473    1.0000 </r>
       <r>   -5.1310    1.0000 </r>
       <r>   -5.0854    1.0000 </r>
       <r>   -5.0493    1.0000 </r>
       <r>   -5.0481    1.0000 </r>
       <r>   -5.0470    1.0000 </r>
       <r>   -4.9914    1.0000 </r>
       <r>   -4.9172    1.0000 </r>
       <r>   -4.8287    1.0000 </r>
       <r>   -4.7874    1.0000 </r>
       <r>   -4.7300    1.0000 </r>
       <r>   -4.6098    1.0000 </r>
       <r>   -4.6088    1.0000 </r>
       <r>   -4.5903    1.0000 </r>
       <r>   -4.5156    1.0000 </r>
       <r>   -4.5040    1.0000 </r>
       <r>   -4.5034    1.0000 </r>
       <r>   -4.4299    1.0000 </r>
       <r>   -4.4051    1.0000 </r>
       <r>   -4.3998    1.0000 </r>
       <r>   -4.3979    1.0000 </r>
       <r>   -4.3813    1.0000 </r>
       <r>   -4.3711    1.0000 </r>
       <r>   -4.3525    1.0000 </r>
       <r>   -4.3304    1.0000 </r>
       <r>   -4.2874    1.0000 </r>
       <r>   -4.2831    1.0000 </r>
       <r>   -4.2649    1.0000 </r>
       <r>   -4.2465    1.0000 </r>
       <r>   -4.2399    1.0000 </r>
       <r>   -4.2059    1.0000 </r>
       <r>   -4.1663    1.0000 </r>
       <r>   -4.1650    1.0000 </r>
       <r>   -4.1519    1.0000 </r>
       <r>   -4.1472    1.0000 </r>
       <r>   -4.1386    1.0000 </r>
       <r>   -3.9965    1.0000 </r>
       <r>   -3.9965    1.0000 </r>
       <r>   -3.4382    1.0000 </r>
       <r>   -3.4336    1.0000 </r>
       <r>   -3.3822    1.0000 </r>
       <r>   -3.3819    1.0000 </r>
       <r>   -3.3773    1.0000 </r>
       <r>   -3.3773    1.0000 </r>
       <r>   -3.2038    1.0000 </r>
       <r>   -3.1880    1.0000 </r>
       <r>   -3.1739    1.0000 </r>
       <r>   -3.1737    1.0000 </r>
       <r>   -3.1668    1.0000 </r>
       <r>   -3.1571    1.0000 </r>
       <r>   -3.1509    1.0000 </r>
       <r>   -3.1457    1.0000 </r>
       <r>   -3.1390    1.0000 </r>
       <r>   -2.9757    1.0000 </r>
       <r>   -2.9757    1.0000 </r>
       <r>   -2.5809    1.0000 </r>
       <r>   -2.5808    1.0000 </r>
       <r>   -2.4796    1.0000 </r>
       <r>   -2.4715    1.0000 </r>
       <r>   -2.4640    1.0000 </r>
       <r>   -2.4640    1.0000 </r>
       <r>   -2.4636    1.0000 </r>
       <r>   -2.4595    1.0000 </r>
       <r>   -0.1241    0.0000 </r>
       <r>   -0.1221    0.0000 </r>
       <r>    0.8002    0.0000 </r>
       <r>    0.8182    0.0000 </r>
       <r>    0.8261    0.0000 </r>
       <r>    2.4835    0.0000 </r>
       <r>    2.5211    0.0000 </r>
       <r>    2.6846    0.0000 </r>
       <r>    2.8511    0.0000 </r>
       <r>    3.1546    0.0000 </r>
       <r>    3.6602    0.0000 </r>
       <r>    3.9306    0.0000 </r>
       <r>    4.4320    0.0000 </r>
       <r>    4.5105    0.0000 </r>
       <r>    4.7155    0.0000 </r>
       <r>    4.7487    0.0000 </r>
       <r>    4.9424    0.0000 </r>
       <r>    4.9553    0.0000 </r>
       <r>    4.9590    0.0000 </r>
       <r>    5.0652    0.0000 </r>
       <r>    5.0715    0.0000 </r>
       <r>    5.1360    0.0000 </r>
       <r>    5.1254    0.0000 </r>
       <r>    5.1396    0.0000 </r>
       <r>    5.2105    0.0000 </r>
       <r>    5.2194    0.0000 </r>
       <r>    5.3032    0.0000 </r>
       <r>    5.3165    0.0000 </r>
       <r>    5.3174    0.0000 </r>
       <r>    5.3262    0.0000 </r>
       <r>    5.3516    0.0000 </r>
       <r>    5.3666    0.0000 </r>
       <r>    5.3796    0.0000 </r>
       <r>    5.3993    0.0000 </r>
       <r>    5.4549    0.0000 </r>
       <r>    5.5150    0.0000 </r>
       <r>    5.5193    0.0000 </r>
       <r>    5.5214    0.0000 </r>
       <r>    5.5884    0.0000 </r>
       <r>    5.6181    0.0000 </r>
       <r>    5.8278    0.0000 </r>
       <r>    5.8666    0.0000 </r>
       <r>    5.9496    0.0000 </r>
       <r>    6.1047    0.0000 </r>
       <r>    6.1183    0.0000 </r>
       <r>    6.1241    0.0000 </r>
       <r>    6.4085    0.0000 </r>
      </set>
      <set comment="kpoint 4">
       <r>  -73.6502    1.0000 </r>
       <r>  -73.6502    1.0000 </r>
       <r>  -73.6501    1.0000 </r>
       <r>  -73.6501    1.0000 </r>
       <r>  -73.6468    1.0000 </r>
       <r>  -73.6468    1.0000 </r>
       <r>  -73.3816    1.0000 </r>
       <r>  -73.3816    1.0000 </r>
       <r>  -73.3815    1.0000 </r>
       <r>  -73.3813    1.0000 </r>
       <r>  -73.3813    1.0000 </r>
       <r>  -73.3812    1.0000 </r>
       <r>  -73.3812    1.0000 </r>
       <r>  -73.3810    1.0000 </r>
       <r>  -73.3810    1.0000 </r>
       <r>  -23.6291    1.0000 </r>
       <r>  -23.6203    1.0000 </r>
       <r>  -23.6128    1.0000 </r>
       <r>  -23.6067    1.0000 </r>
       <r>  -23.5405    1.0000 </r>
       <r>  -23.5405    1.0000 </r>
       <r>  -23.5256    1.0000 </r>
       <r>  -23.5256    1.0000 </r>
       <r>  -19.0685    1.0000 </r>
       <r>  -19.0679    1.0000 </r>
       <r>  -19.0384    1.0000 </r>
       <r>  -19.0338    1.0000 </r>
       <r>  -18.9956    1.0000 </r>
       <r>  -18.9694    1.0000 </r>
       <r>  -18.9556    1.0000 </r>
       <r>  -18.9465    1.0000 </r>
       <r>  -18.9359    1.0000 </r>
       <r>  -18.9155    1.0000 </r>
       <r>  -18.6410    1.0000 </r>
       <r>  -18.5952    1.0000 </r>
       <r>  -18.5248    1.0000 </r>
       <r>  -18.4393    1.0000 </r>
       <r>  -18.4393    1.0000 </r>
       <r>  -18.4393    1.0000 </r>
       <r>  -18.4393    1.0000 </r>
       <r>  -18.3928    1.0000 </r>
       <r>  -18.3885    1.0000 </r>
       <r>  -18.3386    1.0000 </r>
       <r>  -18.3386    1.0000 </r>
       <r>  -18.2567    1.0000 </r>
       <r>  -18.2474    1.0000 </r>
       <r>  -18.1798    1.0000 </r>
       <r>  -18.1671    1.0000 </r>
       <r>  -18.1460    1.0000 </r>
       <r>  -18.1363    1.0000 </r>
       <r>  -18.1363    1.0000 </r>
       <r>  -18.0889    1.0000 </r>
       <r>  -18.0889    1.0000 </r>
       <r>  -18.0888    1.0000 </r>
       <r>  -18.0888    1.0000 </r>
       <r>  -18.0865    1.0000 </r>
       <r>  -18.0864    1.0000 </r>
       <r>  -18.0813    1.0000 </r>
       <r>  -18.0812    1.0000 </r>
       <r>  -18.0812    1.0000 </r>
       <r>  -18.0784    1.0000 </r>
       <r>  -18.0521    1.0000 </r>
       <r>  -18.0051    1.0000 </r>
       <r>  -18.0051    1.0000 </r>
       <r>  -17.9957    1.0000 </r>
       <r>  -17.9871    1.0000 </r>
       <r>  -17.4927    1.0000 </r>
       <r>  -17.4924    1.0000 </r>
       <r>  -17.2710    1.0000 </r>
       <r>  -17.2352    1.0000 </r>
       <r>  -17.2294    1.0000 </r>
       <r>  -17.2024    1.0000 </r>
       <r>  -17.1896    1.0000 </r>
       <r>  -17.1729    1.0000 </r>
       <r>  -17.1705    1.0000 </r>
       <r>  -17.1238    1.0000 </r>
       <r>   -9.7366    1.0000 </r>
       <r>   -9.7321    1.0000 </r>
       <r>   -9.6918    1.0000 </r>
       <r>   -9.6517    1.0000 </r>
       <r>   -9.6248    1.0000 </r>
       <r>   -9.6135    1.0000 </r>
       <r>   -9.6067    1.0000 </r>
       <r>   -9.6047    1.0000 </r>
       <r>   -9.5730    1.0000 </r>
       <r>   -9.5670    1.0000 </r>
       <r>   -9.5650    1.0000 </r>
       <r>   -9.5415    1.0000 </r>
       <r>   -9.5374    1.0000 </r>
       <r>   -9.5348    1.0000 </r>
       <r>   -9.5291    1.0000 </r>
       <r>   -9.5183    1.0000 </r>
       <r>   -9.4846    1.0000 </r>
       <r>   -9.4778    1.0000 </r>
       <r>   -9.4750    1.0000 </r>
       <r>   -9.4612    1.0000 </r>
       <r>   -9.4545    1.0000 </r>
       <r>   -9.4541    1.0000 </r>
       <r>   -9.4521    1.0000 </r>
       <r>   -9.4453    1.0000 </r>
       <r>   -9.1204    1.0000 </r>
       <r>   -8.9683    1.0000 </r>
       <r>   -8.7716    1.0000 </r>
       <r>   -8.5987    1.0000 </r>
       <r>   -8.5876    1.0000 </r>
       <r>   -7.4471    1.0000 </r>
       <r>   -7.4446    1.0000 </r>
       <r>   -7.3123    1.0000 </r>
       <r>   -7.1595    1.0000 </r>
       <r>   -6.9872    1.0000 </r>
       <r>   -6.7864    1.0000 </r>
       <r>   -6.7393    1.0000 </r>
       <r>   -6.6898    1.0000 </r>
       <r>   -6.6663    1.0000 </r>
       <r>   -6.6015    1.0000 </r>
       <r>   -6.5825    1.0000 </r>
       <r>   -6.5663    1.0000 </r>
       <r>   -6.5651    1.0000 </r>
       <r>   -6.2053    1.0000 </r>
       <r>   -6.1887    1.0000 </r>
       <r>   -5.9209    1.0000 </r>
       <r>   -5.8845    1.0000 </r>
       <r>   -5.8745    1.0000 </r>
       <r>   -5.8426    1.0000 </r>
       <r>   -5.8306    1.0000 </r>
       <r>   -5.8259    1.0000 </r>
       <r>   -5.7237    1.0000 </r>
       <r>   -5.6802    1.0000 </r>
       <r>   -5.6167    1.0000 </r>
       <r>   -5.6116    1.0000 </r>
       <r>   -5.6023    1.0000 </r>
       <r>   -5.5841    1.0000 </r>
       <r>   -5.5569    1.0000 </r>
       <r>   -5.5061    1.0000 </r>
       <r>   -5.5060    1.0000 </r>
       <r>   -5.4963    1.0000 </r>
       <r>   -5.4914    1.0000 </r>
       <r>   -5.4643    1.0000 </r>
       <r>   -5.4360    1.0000 </r>
       <r>   -5.3274    1.0000 </r>
       <r>   -5.3000    1.0000 </r>
       <r>   -5.2841    1.0000 </r>
       <r>   -5.2202    1.0000 </r>
       <r>   -5.0978    1.0000 </r>
       <r>   -5.0440    1.0000 </r>
       <r>   -4.9724    1.0000 </r>
       <r>   -4.9636    1.0000 </r>
       <r>   -4.9364    1.0000 </r>
       <r>   -4.9292    1.0000 </r>
       <r>   -4.9262    1.0000 </r>
       <r>   -4.9205    1.0000 </r>
       <r>   -4.8515    1.0000 </r>
       <r>   -4.8443    1.0000 </r>
       <r>   -4.8440    1.0000 </r>
       <r>   -4.8259    1.0000 </r>
       <r>   -4.8199    1.0000 </r>
       <r>   -4.7532    1.0000 </r>
       <r>   -4.7181    1.0000 </r>
       <r>   -4.7040    1.0000 </r>
       <r>   -4.6894    1.0000 </r>
       <r>   -4.6750    1.0000 </r>
       <r>   -4.6302    1.0000 </r>
       <r>   -4.5797    1.0000 </r>
       <r>   -4.5706    1.0000 </r>
       <r>   -4.5554    1.0000 </r>
       <r>   -4.5239    1.0000 </r>
       <r>   -4.4726    1.0000 </r>
       <r>   -4.4554    1.0000 </r>
       <r>   -4.4376    1.0000 </r>
       <r>   -4.4036    1.0000 </r>
       <r>   -4.3983    1.0000 </r>
       <r>   -4.3966    1.0000 </r>
       <r>   -4.3318    1.0000 </r>
       <r>   -4.3198    1.0000 </r>
       <r>   -4.3036    1.0000 </r>
       <r>   -4.2633    1.0000 </r>
       <r>   -4.2629    1.0000 </r>
       <r>   -4.2521    1.0000 </r>
       <r>   -4.2318    1.0000 </r>
       <r>   -4.2131    1.0000 </r>
       <r>   -4.1462    1.0000 </r>
       <r>   -4.0588    1.0000 </r>
       <r>   -4.0219    1.0000 </r>
       <r>   -3.9635    1.0000 </r>
       <r>   -3.4102    1.0000 </r>
       <r>   -3.4086    1.0000 </r>
       <r>   -3.4055    1.0000 </r>
       <r>   -3.4036    1.0000 </r>
       <r>   -3.3246    1.0000 </r>
       <r>   -3.3246    1.0000 </r>
       <r>   -3.2046    1.0000 </r>
       <r>   -3.1749    1.0000 </r>
       <r>   -3.1718    1.0000 </r>
       <r>   -3.1567    1.0000 </r>
       <r>   -3.1474    1.0000 </r>
       <r>   -3.1432    1.0000 </r>
       <r>   -3.1380    1.0000 </r>
       <r>   -3.1308    1.0000 </r>
       <r>   -3.0852    1.0000 </r>
       <r>   -3.0571    1.0000 </r>
       <r>   -3.0492    1.0000 </r>
       <r>   -2.7925    1.0000 </r>
       <r>   -2.7530    1.0000 </r>
       <r>   -2.6851    1.0000 </r>
       <r>   -2.5814    1.0000 </r>
       <r>   -2.4544    1.0000 </r>
       <r>   -2.3844    1.0000 </r>
       <r>   -2.3686    1.0000 </r>
       <r>   -2.1116    1.0000 </r>
       <r>   -0.1344    0.0000 </r>
       <r>   -0.1302    0.0000 </r>
       <r>    0.4589    0.0000 </r>
       <r>    0.9371    0.0000 </r>
       <r>    1.4746    0.0000 </r>
       <r>    2.9501    0.0000 </r>
       <r>    2.9526    0.0000 </r>
       <r>    3.3659    0.0000 </r>
       <r>    3.3875    0.0000 </r>
       <r>    3.7187    0.0000 </r>
       <r>    3.8174    0.0000 </r>
       <r>    4.0997    0.0000 </r>
       <r>    4.1499    0.0000 </r>
       <r>    4.2366    0.0000 </r>
       <r>    4.3983    0.0000 </r>
       <r>    4.4534    0.0000 </r>
       <r>    4.5844    0.0000 </r>
       <r>    4.6082    0.0000 </r>
       <r>    4.6419    0.0000 </r>
       <r>    4.6514    0.0000 </r>
       <r>    4.7595    0.0000 </r>
       <r>    4.8176    0.0000 </r>
       <r>    4.9331    0.0000 </r>
       <r>    5.0034    0.0000 </r>
       <r>    5.0178    0.0000 </r>
       <r>    5.0533    0.0000 </r>
       <r>    5.1337    0.0000 </r>
       <r>    5.1766    0.0000 </r>
       <r>    5.2402    0.0000 </r>
       <r>    5.2712    0.0000 </r>
       <r>    5.3503    0.0000 </r>
       <r>    5.4964    0.0000 </r>
       <r>    5.5084    0.0000 </r>
       <r>    5.5449    0.0000 </r>
       <r>    5.5912    0.0000 </r>
       <r>    5.6774    0.0000 </r>
       <r>    5.7310    0.0000 </r>
       <r>    5.7565    0.0000 </r>
       <r>    5.8006    0.0000 </r>
       <r>    5.8362    0.0000 </r>
       <r>    5.8880    0.0000 </r>
       <r>    5.9163    0.0000 </r>
       <r>    5.9246    0.0000 </r>
       <r>    5.9585    0.0000 </r>
       <r>    6.0088    0.0000 </r>
       <r>    6.0260    0.0000 </r>
       <r>    6.0593    0.0000 </r>
      </set>
      <set comment="kpoint 5">
       <r>  -73.6502    1.0000 </r>
       <r>  -73.6502    1.0000 </r>
       <r>  -73.6502    1.0000 </r>
       <r>  -73.6501    1.0000 </r>
       <r>  -73.6468    1.0000 </r>
       <r>  -73.6468    1.0000 </r>
       <r>  -73.3816    1.0000 </r>
       <r>  -73.3816    1.0000 </r>
       <r>  -73.3815    1.0000 </r>
       <r>  -73.3813    1.0000 </r>
       <r>  -73.3813    1.0000 </r>
       <r>  -73.3813    1.0000 </r>
       <r>  -73.3812    1.0000 </r>
       <r>  -73.3810    1.0000 </r>
       <r>  -73.3810    1.0000 </r>
       <r>  -23.6202    1.0000 </r>
       <r>  -23.6202    1.0000 </r>
       <r>  -23.6129    1.0000 </r>
       <r>  -23.6128    1.0000 </r>
       <r>  -23.5324    1.0000 </r>
       <r>  -23.5324    1.0000 </r>
       <r>  -23.5323    1.0000 </r>
       <r>  -23.5323    1.0000 </r>
       <r>  -19.0866    1.0000 </r>
       <r>  -19.0863    1.0000 </r>
       <r>  -19.0356    1.0000 </r>
       <r>  -19.0296    1.0000 </r>
       <r>  -19.0110    1.0000 </r>
       <r>  -18.9864    1.0000 </r>
       <r>  -18.9730    1.0000 </r>
       <r>  -18.9415    1.0000 </r>
       <r>  -18.9276    1.0000 </r>
       <r>  -18.9203    1.0000 </r>
       <r>  -18.5275    1.0000 </r>
       <r>  -18.5264    1.0000 </r>
       <r>  -18.5181    1.0000 </r>
       <r>  -18.4393    1.0000 </r>
       <r>  -18.4393    1.0000 </r>
       <r>  -18.4392    1.0000 </r>
       <r>  -18.4392    1.0000 </r>
       <r>  -18.3999    1.0000 </r>
       <r>  -18.3844    1.0000 </r>
       <r>  -18.3386    1.0000 </r>
       <r>  -18.3386    1.0000 </r>
       <r>  -18.3249    1.0000 </r>
       <r>  -18.2692    1.0000 </r>
       <r>  -18.2174    1.0000 </r>
       <r>  -18.1973    1.0000 </r>
       <r>  -18.1508    1.0000 </r>
       <r>  -18.0889    1.0000 </r>
       <r>  -18.0889    1.0000 </r>
       <r>  -18.0888    1.0000 </r>
       <r>  -18.0887    1.0000 </r>
       <r>  -18.0867    1.0000 </r>
       <r>  -18.0866    1.0000 </r>
       <r>  -18.0821    1.0000 </r>
       <r>  -18.0817    1.0000 </r>
       <r>  -18.0811    1.0000 </r>
       <r>  -18.0791    1.0000 </r>
       <r>  -18.0790    1.0000 </r>
       <r>  -18.0728    1.0000 </r>
       <r>  -18.0691    1.0000 </r>
       <r>  -18.0433    1.0000 </r>
       <r>  -18.0310    1.0000 </r>
       <r>  -17.9462    1.0000 </r>
       <r>  -17.9461    1.0000 </r>
       <r>  -17.4757    1.0000 </r>
       <r>  -17.4748    1.0000 </r>
       <r>  -17.3115    1.0000 </r>
       <r>  -17.2904    1.0000 </r>
       <r>  -17.2764    1.0000 </r>
       <r>  -17.2588    1.0000 </r>
       <r>  -17.2341    1.0000 </r>
       <r>  -17.1683    1.0000 </r>
       <r>  -17.1450    1.0000 </r>
       <r>  -17.1404    1.0000 </r>
       <r>   -9.6424    1.0000 </r>
       <r>   -9.6416    1.0000 </r>
       <r>   -9.6415    1.0000 </r>
       <r>   -9.6366    1.0000 </r>
       <r>   -9.5996    1.0000 </r>
       <r>   -9.5940    1.0000 </r>
       <r>   -9.5880    1.0000 </r>
       <r>   -9.5831    1.0000 </r>
       <r>   -9.5476    1.0000 </r>
       <r>   -9.5471    1.0000 </r>
       <r>   -9.5298    1.0000 </r>
       <r>   -9.5224    1.0000 </r>
       <r>   -9.5104    1.0000 </r>
       <r>   -9.5064    1.0000 </r>
       <r>   -9.4976    1.0000 </r>
       <r>   -9.4957    1.0000 </r>
       <r>   -9.4560    1.0000 </r>
       <r>   -9.4555    1.0000 </r>
       <r>   -9.4414    1.0000 </r>
       <r>   -9.4390    1.0000 </r>
       <r>   -9.4215    1.0000 </r>
       <r>   -9.4191    1.0000 </r>
       <r>   -9.4190    1.0000 </r>
       <r>   -9.4155    1.0000 </r>
       <r>   -8.7842    1.0000 </r>
       <r>   -8.7678    1.0000 </r>
       <r>   -8.7367    1.0000 </r>
       <r>   -8.5488    1.0000 </r>
       <r>   -8.5355    1.0000 </r>
       <r>   -7.5412    1.0000 </r>
       <r>   -7.4984    1.0000 </r>
       <r>   -7.3000    1.0000 </r>
       <r>   -7.2821    1.0000 </r>
       <r>   -7.1720    1.0000 </r>
       <r>   -6.6874    1.0000 </r>
       <r>   -6.6715    1.0000 </r>
       <r>   -6.6198    1.0000 </r>
       <r>   -6.6073    1.0000 </r>
       <r>   -6.5891    1.0000 </r>
       <r>   -6.5832    1.0000 </r>
       <r>   -6.4922    1.0000 </r>
       <r>   -6.4854    1.0000 </r>
       <r>   -6.2005    1.0000 </r>
       <r>   -6.1936    1.0000 </r>
       <r>   -6.0298    1.0000 </r>
       <r>   -6.0258    1.0000 </r>
       <r>   -5.9152    1.0000 </r>
       <r>   -5.8864    1.0000 </r>
[...]
       <r>    4.8059    0.0000 </r>
       <r>    4.9767    0.0000 </r>
       <r>    4.9903    0.0000 </r>
       <r>    5.1958    0.0000 </r>
       <r>    5.2107    0.0000 </r>
       <r>    5.2343    0.0000 </r>
       <r>    5.3950    0.0000 </r>
       <r>    5.4193    0.0000 </r>
       <r>    5.4680    0.0000 </r>
       <r>    5.5077    0.0000 </r>
       <r>    5.5089    0.0000 </r>
       <r>    5.5300    0.0000 </r>
       <r>    5.5636    0.0000 </r>
       <r>    5.6096    0.0000 </r>
       <r>    5.6669    0.0000 </r>
       <r>    5.7167    0.0000 </r>
       <r>    5.7407    0.0000 </r>
       <r>    5.7586    0.0000 </r>
       <r>    5.8071    0.0000 </r>
       <r>    5.8095    0.0000 </r>
       <r>    5.8680    0.0000 </r>
       <r>    5.9118    0.0000 </r>
       <r>    5.9338    0.0000 </r>
       <r>    5.9909    0.0000 </r>
       <r>    6.0864    0.0000 </r>
       <r>    6.1668    0.0000 </r>
       <r>    6.1734    0.0000 </r>
       <r>    6.2307    0.0000 </r>
       <r>    6.3242    0.0000 </r>
       <r>    6.3807    0.0000 </r>
       <r>    6.4032    0.0000 </r>
       <r>    6.4339    0.0000 </r>
      </set>
     </set>
    </set>
   </array>
  </eigenvalues>
  <separator name="orbital magnetization" >
   <v name="MAGDIPOLOUT">      0.00000000      0.00000000      0.00000000</v>
  </separator>
  <dos>
   <i name="efermi">     -1.56454375 </i>
   <total>
    <array>
     <dimension dim="1">gridpoints</dimension>
     <dimension dim="2">spin</dimension>
     <field>energy</field>
     <field>total</field>
     <field>integrated</field>
     <set>
      <set comment="spin 1">
       <r>   -77.6544     0.0000     0.0000 </r>
       <r>   -77.3608     0.0000     0.0000 </r>
       <r>   -77.0672     0.0000     0.0000 </r>
       <r>   -76.7735     0.0000     0.0000 </r>
       <r>   -76.4799     0.0000     0.0000 </r>
       <r>   -76.1862     0.0000     0.0000 </r>
       <r>   -75.8926     0.0000     0.0000 </r>
       <r>   -75.5989     0.0000     0.0000 </r>
       <r>   -75.3053     0.0000     0.0000 </r>
       <r>   -75.0117     0.0000     0.0000 </r>
       <r>   -74.7180     0.0000     0.0000 </r>
       <r>   -74.4244     0.0000     0.0000 </r>
       <r>   -74.1307     0.0000     0.0000 </r>
       <r>   -73.8371     0.0000     0.0000 </r>
       <r>   -73.5435    40.8080    11.9829 </r>
       <r>   -73.2498    61.3165    29.9982 </r>
       <r>   -72.9562     0.0000    30.0000 </r>
       <r>   -72.6625     0.0000    30.0000 </r>
       <r>   -72.3689     0.0000    30.0000 </r>
       <r>   -72.0752     0.0000    30.0000 </r>
       <r>   -71.7816     0.0000    30.0000 </r>
       <r>   -71.4880     0.0000    30.0000 </r>
       <r>   -71.1943     0.0000    30.0000 </r>
       <r>   -70.9007     0.0000    30.0000 </r>
       <r>   -70.6070     0.0000    30.0000 </r>
       <r>   -70.3134     0.0000    30.0000 </r>
       <r>   -70.0198     0.0000    30.0000 </r>
       <r>   -69.7261     0.0000    30.0000 </r>
       <r>   -69.4325     0.0000    30.0000 </r>
       <r>   -69.1388     0.0000    30.0000 </r>
       <r>   -68.8452     0.0000    30.0000 </r>
       <r>   -68.5515     0.0000    30.0000 </r>
       <r>   -68.2579     0.0000    30.0000 </r>
       <r>   -67.9643     0.0000    30.0000 </r>
       <r>   -67.6706     0.0000    30.0000 </r>
       <r>   -67.3770     0.0000    30.0000 </r>
       <r>   -67.0833     0.0000    30.0000 </r>
       <r>   -66.7897     0.0000    30.0000 </r>
       <r>   -66.4961     0.0000    30.0000 </r>
       <r>   -66.2024     0.0000    30.0000 </r>
       <r>   -65.9088     0.0000    30.0000 </r>
       <r>   -65.6151     0.0000    30.0000 </r>
       <r>   -65.3215     0.0000    30.0000 </r>
       <r>   -65.0278     0.0000    30.0000 </r>
       <r>   -64.7342     0.0000    30.0000 </r>
       <r>   -64.4406     0.0000    30.0000 </r>
       <r>   -64.1469     0.0000    30.0000 </r>
       <r>   -63.8533     0.0000    30.0000 </r>
       <r>   -63.5596     0.0000    30.0000 </r>
       <r>   -63.2660     0.0000    30.0000 </r>
       <r>   -62.9724     0.0000    30.0000 </r>
       <r>   -62.6787     0.0000    30.0000 </r>
       <r>   -62.3851     0.0000    30.0000 </r>
       <r>   -62.0914     0.0000    30.0000 </r>
       <r>   -61.7978     0.0000    30.0000 </r>
       <r>   -61.5041     0.0000    30.0000 </r>
       <r>   -61.2105     0.0000    30.0000 </r>
       <r>   -60.9169     0.0000    30.0000 </r>
       <r>   -60.6232     0.0000    30.0000 </r>
       <r>   -60.3296     0.0000    30.0000 </r>
       <r>   -60.0359     0.0000    30.0000 </r>
       <r>   -59.7423     0.0000    30.0000 </r>
       <r>   -59.4487     0.0000    30.0000 </r>
       <r>   -59.1550     0.0000    30.0000 </r>
       <r>   -58.8614     0.0000    30.0000 </r>
       <r>   -58.5677     0.0000    30.0000 </r>
       <r>   -58.2741     0.0000    30.0000 </r>
       <r>   -57.9804     0.0000    30.0000 </r>
       <r>   -57.6868     0.0000    30.0000 </r>
       <r>   -57.3932     0.0000    30.0000 </r>
       <r>   -57.0995     0.0000    30.0000 </r>
       <r>   -56.8059     0.0000    30.0000 </r>
       <r>   -56.5122     0.0000    30.0000 </r>
       <r>   -56.2186     0.0000    30.0000 </r>
       <r>   -55.9250     0.0000    30.0000 </r>
       <r>   -55.6313     0.0000    30.0000 </r>
       <r>   -55.3377     0.0000    30.0000 </r>
       <r>   -55.0440     0.0000    30.0000 </r>
       <r>   -54.7504     0.0000    30.0000 </r>
       <r>   -54.4567     0.0000    30.0000 </r>
       <r>   -54.1631     0.0000    30.0000 </r>
       <r>   -53.8695     0.0000    30.0000 </r>
       <r>   -53.5758     0.0000    30.0000 </r>
       <r>   -53.2822     0.0000    30.0000 </r>
       <r>   -52.9885     0.0000    30.0000 </r>
       <r>   -52.6949     0.0000    30.0000 </r>
       <r>   -52.4013     0.0000    30.0000 </r>
       <r>   -52.1076     0.0000    30.0000 </r>
       <r>   -51.8140     0.0000    30.0000 </r>
       <r>   -51.5203     0.0000    30.0000 </r>
       <r>   -51.2267     0.0000    30.0000 </r>
       <r>   -50.9330     0.0000    30.0000 </r>
       <r>   -50.6394     0.0000    30.0000 </r>
       <r>   -50.3458     0.0000    30.0000 </r>
       <r>   -50.0521     0.0000    30.0000 </r>
       <r>   -49.7585     0.0000    30.0000 </r>
       <r>   -49.4648     0.0000    30.0000 </r>
       <r>   -49.1712     0.0000    30.0000 </r>
       <r>   -48.8776     0.0000    30.0000 </r>
       <r>   -48.5839     0.0000    30.0000 </r>
       <r>   -48.2903     0.0000    30.0000 </r>
       <r>   -47.9966     0.0000    30.0000 </r>
       <r>   -47.7030     0.0000    30.0000 </r>
       <r>   -47.4093     0.0000    30.0000 </r>
       <r>   -47.1157     0.0000    30.0000 </r>
       <r>   -46.8221     0.0000    30.0000 </r>
       <r>   -46.5284     0.0000    30.0000 </r>
       <r>   -46.2348     0.0000    30.0000 </r>
       <r>   -45.9411     0.0000    30.0000 </r>
       <r>   -45.6475     0.0000    30.0000 </r>
       <r>   -45.3539     0.0000    30.0000 </r>
       <r>   -45.0602     0.0000    30.0000 </r>
       <r>   -44.7666     0.0000    30.0000 </r>
       <r>   -44.4729     0.0000    30.0000 </r>
       <r>   -44.1793     0.0000    30.0000 </r>
       <r>   -43.8856     0.0000    30.0000 </r>
       <r>   -43.5920     0.0000    30.0000 </r>
       <r>   -43.2984     0.0000    30.0000 </r>
       <r>   -43.0047     0.0000    30.0000 </r>
       <r>   -42.7111     0.0000    30.0000 </r>
       <r>   -42.4174     0.0000    30.0000 </r>
       <r>   -42.1238     0.0000    30.0000 </r>
       <r>   -41.8302     0.0000    30.0000 </r>
       <r>   -41.5365     0.0000    30.0000 </r>
       <r>   -41.2429     0.0000    30.0000 </r>
       <r>   -40.9492     0.0000    30.0000 </r>
       <r>   -40.6556     0.0000    30.0000 </r>
       <r>   -40.3619     0.0000    30.0000 </r>
       <r>   -40.0683     0.0000    30.0000 </r>
       <r>   -39.7747     0.0000    30.0000 </r>
       <r>   -39.4810     0.0000    30.0000 </r>
       <r>   -39.1874     0.0000    30.0000 </r>
       <r>   -38.8937     0.0000    30.0000 </r>
       <r>   -38.6001     0.0000    30.0000 </r>
       <r>   -38.3065     0.0000    30.0000 </r>
       <r>   -38.0128     0.0000    30.0000 </r>
       <r>   -37.7192     0.0000    30.0000 </r>
       <r>   -37.4255     0.0000    30.0000 </r>
       <r>   -37.1319     0.0000    30.0000 </r>
       <r>   -36.8382     0.0000    30.0000 </r>
       <r>   -36.5446     0.0000    30.0000 </r>
       <r>   -36.2510     0.0000    30.0000 </r>
       <r>   -35.9573     0.0000    30.0000 </r>
       <r>   -35.6637     0.0000    30.0000 </r>
       <r>   -35.3700     0.0000    30.0000 </r>
       <r>   -35.0764     0.0000    30.0000 </r>
       <r>   -34.7828     0.0000    30.0000 </r>
       <r>   -34.4891     0.0000    30.0000 </r>
       <r>   -34.1955     0.0000    30.0000 </r>
       <r>   -33.9018     0.0000    30.0000 </r>
       <r>   -33.6082     0.0000    30.0000 </r>
       <r>   -33.3145     0.0000    30.0000 </r>
       <r>   -33.0209     0.0000    30.0000 </r>
       <r>   -32.7273     0.0000    30.0000 </r>
       <r>   -32.4336     0.0000    30.0000 </r>
       <r>   -32.1400     0.0000    30.0000 </r>
       <r>   -31.8463     0.0000    30.0000 </r>
       <r>   -31.5527     0.0000    30.0000 </r>
       <r>   -31.2591     0.0000    30.0000 </r>
       <r>   -30.9654     0.0000    30.0000 </r>
       <r>   -30.6718     0.0000    30.0000 </r>
       <r>   -30.3781     0.0000    30.0000 </r>
       <r>   -30.0845     0.0000    30.0000 </r>
       <r>   -29.7908     0.0000    30.0000 </r>
       <r>   -29.4972     0.0000    30.0000 </r>
       <r>   -29.2036     0.0000    30.0000 </r>
       <r>   -28.9099     0.0000    30.0000 </r>
       <r>   -28.6163     0.0000    30.0000 </r>
       <r>   -28.3226     0.0000    30.0000 </r>
       <r>   -28.0290     0.0000    30.0000 </r>
       <r>   -27.7354     0.0000    30.0000 </r>
       <r>   -27.4417     0.0000    30.0000 </r>
       <r>   -27.1481     0.0000    30.0000 </r>
       <r>   -26.8544     0.0000    30.0000 </r>
       <r>   -26.5608     0.0000    30.0000 </r>
       <r>   -26.2671     0.0000    30.0000 </r>
       <r>   -25.9735     0.0000    30.0000 </r>
       <r>   -25.6799     0.0000    30.0000 </r>
       <r>   -25.3862     0.0000    30.0000 </r>
       <r>   -25.0926     0.0000    30.0000 </r>
       <r>   -24.7989     0.0000    30.0000 </r>
       <r>   -24.5053     0.0000    30.0000 </r>
       <r>   -24.2117     0.0000    30.0000 </r>
       <r>   -23.9180     0.0000    30.0000 </r>
       <r>   -23.6244    11.6503    33.4210 </r>
       <r>   -23.3307    42.8379    46.0000 </r>
       <r>   -23.0371     0.0000    46.0000 </r>
       <r>   -22.7434     0.0000    46.0000 </r>
       <r>   -22.4498     0.0000    46.0000 </r>
       <r>   -22.1562     0.0000    46.0000 </r>
       <r>   -21.8625     0.0000    46.0000 </r>
       <r>   -21.5689     0.0000    46.0000 </r>
       <r>   -21.2752     0.0000    46.0000 </r>
       <r>   -20.9816     0.0000    46.0000 </r>
       <r>   -20.6880     0.0000    46.0000 </r>
       <r>   -20.3943     0.0000    46.0000 </r>
       <r>   -20.1007     0.0000    46.0000 </r>
       <r>   -19.8070     0.0000    46.0000 </r>
       <r>   -19.5134     0.0000    46.0000 </r>
       <r>   -19.2197     0.0013    46.0004 </r>
       <r>   -18.9261    55.4810    62.2919 </r>
       <r>   -18.6325    17.5381    67.4441 </r>
       <r>   -18.3388    63.8878    86.2043 </r>
       <r>   -18.0452   119.4198   121.2710 </r>
       <r>   -17.7515    36.5368   132.0000 </r>
       <r>   -17.4579    11.3268   135.3260 </r>
       <r>   -17.1643    38.4879   146.6278 </r>
       <r>   -16.8706    18.2907   152.0000 </r>
       <r>   -16.5770     0.0000   152.0000 </r>
       <r>   -16.2833     0.0000   152.0000 </r>
       <r>   -15.9897     0.0000   152.0000 </r>
       <r>   -15.6960     0.0000   152.0000 </r>
       <r>   -15.4024     0.0000   152.0000 </r>
       <r>   -15.1088     0.0000   152.0000 </r>
       <r>   -14.8151     0.0000   152.0000 </r>
       <r>   -14.5215     0.0000   152.0000 </r>
       <r>   -14.2278     0.0000   152.0000 </r>
       <r>   -13.9342     0.0000   152.0000 </r>
       <r>   -13.6406     0.0000   152.0000 </r>
       <r>   -13.3469     0.0000   152.0000 </r>
       <r>   -13.0533     0.0000   152.0000 </r>
       <r>   -12.7596     0.0000   152.0000 </r>
       <r>   -12.4660     0.0000   152.0000 </r>
       <r>   -12.1723     0.0000   152.0000 </r>
       <r>   -11.8787     0.0000   152.0000 </r>
       <r>   -11.5851     0.0000   152.0000 </r>
       <r>   -11.2914     0.0000   152.0000 </r>
       <r>   -10.9978     0.0000   152.0000 </r>
       <r>   -10.7041     0.0000   152.0000 </r>
       <r>   -10.4105     0.0000   152.0000 </r>
       <r>   -10.1169     0.0000   152.0000 </r>
       <r>    -9.8232     1.6497   152.4844 </r>
       <r>    -9.5296    90.1774   178.9643 </r>
       <r>    -9.2359    74.0920   200.7236 </r>
       <r>    -8.9423     5.4211   202.3155 </r>
       <r>    -8.6486    15.8757   206.9772 </r>
       <r>    -8.3550    10.2927   210.0000 </r>
       <r>    -8.0614     0.0000   210.0000 </r>
       <r>    -7.7677     0.3695   210.1085 </r>
       <r>    -7.4741     6.9028   212.1354 </r>
       <r>    -7.1804    15.9846   216.8292 </r>
       <r>    -6.8868     8.6913   219.3816 </r>
       <r>    -6.5932    36.2875   230.0372 </r>
       <r>    -6.2995    22.0672   236.5177 </r>
       <r>    -6.0059    19.2733   242.1773 </r>
       <r>    -5.7122    35.7433   252.6731 </r>
       <r>    -5.4186    79.3033   275.9609 </r>
       <r>    -5.1249    46.3740   289.5802 </r>
       <r>    -4.8313    59.3924   307.0206 </r>
       <r>    -4.5377    77.9567   329.9123 </r>
       <r>    -4.2440    76.1718   352.2802 </r>
       <r>    -3.9504    47.1800   366.1348 </r>
       <r>    -3.6567     6.1886   367.9527 </r>
       <r>    -3.3631    30.6093   376.9408 </r>
       <r>    -3.0695    77.3101   399.6423 </r>
       <r>    -2.7758    17.7270   404.8485 </r>
       <r>    -2.4822    15.3212   409.3474 </r>
       <r>    -2.1885    22.9307   416.0809 </r>
       <r>    -1.8949     6.5340   417.9996 </r>
       <r>    -1.6012     0.0006   418.0000 </r>
       <r>    -1.3076     0.0001   418.0000 </r>
       <r>    -1.0140     0.8325   418.2445 </r>
       <r>    -0.7203     0.2065   418.3051 </r>
       <r>    -0.4267     3.2204   419.2507 </r>
       <r>    -0.1330     2.7608   420.0614 </r>
       <r>     0.1606     4.4733   421.3750 </r>
       <r>     0.4542     4.0674   422.5694 </r>
       <r>     0.7479     3.2575   423.5259 </r>
       <r>     1.0415     5.0173   424.9992 </r>
       <r>     1.3352     5.9263   426.7394 </r>
       <r>     1.6288     3.0170   427.6253 </r>
       <r>     1.9225     1.2759   428.0000 </r>
       <r>     2.2161     0.0000   428.0000 </r>
       <r>     2.5097     0.9752   428.2864 </r>
       <r>     2.8034     3.3151   429.2598 </r>
       <r>     3.0970    12.1465   432.8266 </r>
       <r>     3.3907     8.4267   435.3014 </r>
       <r>     3.6843     9.4712   438.0830 </r>
       <r>     3.9779    11.2225   441.3787 </r>
       <r>     4.2716    12.1558   444.9482 </r>
       <r>     4.5652    19.9192   450.7975 </r>
       <r>     4.8589    29.2412   459.3844 </r>
       <r>     5.1525    30.2869   468.2781 </r>
       <r>     5.4462    48.3315   482.4705 </r>
       <r>     5.7398    42.5161   494.9552 </r>
       <r>     6.0334    44.4732   508.0146 </r>
       <r>     6.3271    11.2833   511.3289 </r>
       <r>     6.6207     2.2853   512.0000 </r>
       <r>     6.9144     0.0000   512.0000 </r>
       <r>     7.2080     0.0000   512.0000 </r>
       <r>     7.5016     0.0000   512.0000 </r>
       <r>     7.7953     0.0000   512.0000 </r>
       <r>     8.0889     0.0000   512.0000 </r>
       <r>     8.3826     0.0000   512.0000 </r>
       <r>     8.6762     0.0000   512.0000 </r>
       <r>     8.9699     0.0000   512.0000 </r>
       <r>     9.2635     0.0000   512.0000 </r>
       <r>     9.5571     0.0000   512.0000 </r>
       <r>     9.8508     0.0000   512.0000 </r>
       <r>    10.1444     0.0000   512.0000 </r>
       <r>    10.4381     0.0000   512.0000 </r>
      </set>
     </set>
    </array>
   </total>
  </dos>
 </calculation>
 <structure name="finalpos" >
  <crystal>
   <varray name="basis" >
    <v>       7.13590002       0.00000000       0.00000000 </v>
    <v>       0.00000000       7.13590002       0.00000000 </v>
    <v>       0.00000000       0.00000000      45.18339920 </v>
   </varray>
   <i name="volume">   2300.78699304 </i>
   <varray name="rec_basis" >
    <v>       0.14013649       0.00000000       0.00000000 </v>
    <v>       0.00000000       0.14013649       0.00000000 </v>
    <v>       0.00000000       0.00000000       0.02213202 </v>
   </varray>
  </crystal>
  <varray name="positions" >
   <v>       0.00000000       0.00000000       0.55489999 </v>
   <v>       0.00000000       0.00000000       0.44510001 </v>
   <v>       0.00000000       0.00000000       0.66850001 </v>
   <v>       0.00000000       0.00000000       0.33149999 </v>
   <v>       0.50000000       0.50000000       0.66659999 </v>
   <v>       0.50000000       0.50000000       0.33340001 </v>
   <v>       0.50000000       0.50000000       0.55680001 </v>
   <v>       0.50000000       0.50000000       0.44319999 </v>
   <v>       0.74590003       0.74590003       0.61170000 </v>
   <v>       0.25409997       0.25409999       0.38830000 </v>
   <v>       0.25409997       0.25409999       0.61170000 </v>
   <v>       0.74590003       0.74590003       0.38830000 </v>
   <v>       0.25409999       0.74590003       0.61170000 </v>
   <v>       0.74590003       0.25409997       0.38830000 </v>
   <v>       0.74590003       0.25409997       0.61170000 </v>
   <v>       0.25409999       0.74590003       0.38830000 </v>
   <v>       0.24589998       0.24589998       0.72329998 </v>
   <v>       0.75410002       0.75410002       0.27669999 </v>
   <v>       0.75410002       0.75410002       0.72329998 </v>
   <v>       0.24589998       0.24589998       0.27669999 </v>
   <v>       0.75410002       0.24589998       0.72329998 </v>
   <v>       0.24589998       0.75410002       0.27669999 </v>
   <v>       0.24589998       0.75410002       0.72329998 </v>
   <v>       0.75410002       0.24589998       0.27669999 </v>
   <v>       0.24589998       0.24589998       0.50000000 </v>
   <v>       0.75410002       0.75410002       0.50000000 </v>
   <v>       0.75410002       0.24589998       0.50000000 </v>
   <v>       0.24589998       0.75410002       0.50000000 </v>
   <v>       0.00000000       0.00000000       0.61170000 </v>
   <v>       0.00000000       0.00000000       0.38830000 </v>
   <v>       0.50000000       0.50000000       0.72329998 </v>
   <v>       0.50000000       0.50000000       0.27669999 </v>
   <v>       0.50000000       0.50000000       0.50000000 </v>
   <v>       0.00000000       0.50000000       0.55579996 </v>
   <v>       0.00000000       0.50000000       0.44420001 </v>
   <v>       0.50000000       0.00000000       0.55579996 </v>
   <v>       0.50000000       0.00000000       0.44420001 </v>
   <v>       0.50000000       0.00000000       0.66750002 </v>
   <v>       0.50000000       0.00000000       0.33250001 </v>
   <v>       0.00000000       0.50000000       0.66750002 </v>
   <v>       0.00000000       0.50000000       0.33250001 </v>
   <v>       0.00000000       0.00000000       0.72329998 </v>
   <v>       0.00000000       0.00000000       0.27669999 </v>
   <v>       0.50000000       0.50000000       0.61170000 </v>
   <v>       0.50000000       0.50000000       0.38830000 </v>
   <v>       0.00000000       0.00000000       0.50000000 </v>
  </varray>
 </structure>
</modeling>
